LAMMPS 'data.' description - created with Brahms (www.personal.soton.ac.uk/orsi/brahms)

    17476 atoms
    14336 bonds
    16384 angles

        6 atom types
        5 bond types
        5 angle types

          -62           62      xlo xhi
          -62           62      ylo yhi
          -21           63      zlo zhi

Atoms

      1    2   -56.7513   -56.9987    18.2065      1   0.80   0.00000   0.00000   0.00000  4.6  0.8
      2    3   -58.2380   -58.0803    16.7785      1  -0.80   0.00000   0.00000   0.00000  4.9  1.5
      3    4   -58.1947   -58.3292    14.0307      1   0.00   0.30188  -0.12973   0.25579  4.7  1.1
      4    5   -60.2771   -58.9047    12.3380      1   0.00  -0.20659   0.46903   0.09085  4.7  1.1
      5    6   -60.2306   -58.5835     9.8663      1   0.00   0.00000   0.00000   0.00000  4.6  0.8
      6    6   -60.1543   -57.6717     7.7085      1   0.00   0.00000   0.00000   0.00000  4.6  0.8
      7    6   -59.9904   -58.0342     5.4509      1   0.00   0.00000   0.00000   0.00000  4.6  0.8
      8    6   -60.1554   -59.1025     3.2380      1   0.00   0.00000   0.00000   0.00000  4.6  0.8
      9    6   -60.3702   -59.1039     1.1085      1   0.00   0.00000   0.00000   0.00000  4.6  0.8
     10    5   -56.3528   -57.6987    12.2567      1   0.00   0.02693  -0.06967  -0.51511  4.7  1.1
     11    6   -56.1564   -58.8065     9.9338      1   0.00   0.00000   0.00000   0.00000  4.6  0.8
     12    6   -56.1551   -57.8566     7.6668      1   0.00   0.00000   0.00000   0.00000  4.6  0.8
     13    6   -56.0610   -56.8567     5.8648      1   0.00   0.00000   0.00000   0.00000  4.6  0.8
     14    6   -56.3774   -57.3885     3.1019      1   0.00   0.00000   0.00000   0.00000  4.6  0.8
     15    6   -56.2930   -58.5325     1.9309      1   0.00   0.00000   0.00000   0.00000  4.6  0.8
     16    2   -57.1254   -56.7550   -18.2771      2   0.80   0.00000   0.00000   0.00000  4.6  0.8
     17    3   -58.0738   -58.2301   -16.6558      2  -0.80   0.00000   0.00000   0.00000  4.9  1.5
     18    4   -58.3716   -58.1833   -14.0232      2   0.00  -0.05888   0.26132  -0.31880  4.7  1.1
     19    5   -57.3104   -59.7552   -12.1908      2   0.00  -0.51102  -0.01962   0.09691  4.7  1.1
     20    6   -57.0253   -59.8676   -10.0356      2   0.00   0.00000   0.00000   0.00000  4.6  0.8
     21    6   -58.1521   -60.0105    -7.6088      2   0.00   0.00000   0.00000   0.00000  4.6  0.8
     22    6   -58.0884   -60.0867    -5.8747      2   0.00   0.00000   0.00000   0.00000  4.6  0.8
     23    6   -57.0431   -60.0830    -3.1425      2   0.00   0.00000   0.00000   0.00000  4.6  0.8
     24    6   -57.1793   -60.0732    -1.7634      2   0.00   0.00000   0.00000   0.00000  4.6  0.8
     25    5   -59.3223   -55.9758   -12.2448      2   0.00   0.15269   0.49606   0.03908  4.7  1.1
     26    6   -59.3480   -56.1206    -9.8302      2   0.00   0.00000   0.00000   0.00000  4.6  0.8
     27    6   -57.1712   -55.9874    -7.7030      2   0.00   0.00000   0.00000   0.00000  4.6  0.8
     28    6   -57.9431   -56.1341    -5.4307      2   0.00   0.00000   0.00000   0.00000  4.6  0.8
     29    6   -59.0507   -56.3543    -3.3001      2   0.00   0.00000   0.00000   0.00000  4.6  0.8
     30    6   -57.8908   -56.0830    -1.0335      2   0.00   0.00000   0.00000   0.00000  4.6  0.8
     31    2   -51.1824   -57.4336    18.5843      3   0.80   0.00000   0.00000   0.00000  4.6  0.8
     32    3   -50.2401   -58.1474    16.7124      3  -0.80   0.00000   0.00000   0.00000  4.9  1.5
     33    4   -50.3327   -58.0618    14.1122      3   0.00   0.12413   0.32636  -0.22686  4.7  1.1
     34    5   -52.3573   -58.1380    12.3239      3   0.00  -0.21984  -0.36833  -0.29483  4.7  1.1
     35    6   -52.2913   -57.4036     9.9706      3   0.00   0.00000   0.00000   0.00000  4.6  0.8
     36    6   -52.2533   -58.9657     7.6598      3   0.00   0.00000   0.00000   0.00000  4.6  0.8
     37    6   -52.4804   -59.0093     5.7576      3   0.00   0.00000   0.00000   0.00000  4.6  0.8
     38    6   -52.3306   -57.7841     3.2006      3   0.00   0.00000   0.00000   0.00000  4.6  0.8
     39    6   -52.3670   -58.2136     1.6168      3   0.00   0.00000   0.00000   0.00000  4.6  0.8
     40    5   -48.3606   -57.8195    12.3568      3   0.00   0.44642  -0.01874   0.26699  4.7  1.1
     41    6   -48.4152   -58.9882     9.9313      3   0.00   0.00000   0.00000   0.00000  4.6  0.8
     42    6   -48.4970   -57.2058     7.6873      3   0.00   0.00000   0.00000   0.00000  4.6  0.8
     43    6   -48.5083   -58.4199     5.5156      3   0.00   0.00000   0.00000   0.00000  4.6  0.8
     44    6   -48.3450   -57.9174     3.2362      3   0.00   0.00000   0.00000   0.00000  4.6  0.8
     45    6   -48.2921   -58.2033     1.2462      3   0.00   0.00000   0.00000   0.00000  4.6  0.8
     46    2   -50.8260   -57.6116   -18.6883      4   0.80   0.00000   0.00000   0.00000  4.6  0.8
     47    3   -50.4013   -58.0664   -16.5491      4  -0.80   0.00000   0.00000   0.00000  4.9  1.5
     48    4   -50.3095   -58.1203   -14.0552      4   0.00  -0.29224   0.14435  -0.25913  4.7  1.1
     49    5   -49.5546   -60.2398   -12.1928      4   0.00  -0.30346   0.41114   0.09895  4.7  1.1
     50    6   -51.1598   -60.1088    -9.9598      4   0.00   0.00000   0.00000   0.00000  4.6  0.8
     51    6   -50.0161   -60.0427    -7.6001      4   0.00   0.00000   0.00000   0.00000  4.6  0.8
     52    6   -49.7440   -60.1174    -5.7573      4   0.00   0.00000   0.00000   0.00000  4.6  0.8
     53    6   -50.7431   -60.1064    -3.0903      4   0.00   0.00000   0.00000   0.00000  4.6  0.8
     54    6   -50.7846   -60.2831    -1.5612      4   0.00   0.00000   0.00000   0.00000  4.6  0.8
     55    5   -51.0072   -56.2931   -12.2166      4   0.00   0.45692  -0.24460  -0.04812  4.7  1.1
     56    6   -51.0782   -56.0000    -9.9586      4   0.00   0.00000   0.00000   0.00000  4.6  0.8
     57    6   -49.6202   -55.9827    -7.7417      4   0.00   0.00000   0.00000   0.00000  4.6  0.8
     58    6   -50.0480   -56.1720    -5.6947      4   0.00   0.00000   0.00000   0.00000  4.6  0.8
     59    6   -50.1441   -56.1507    -3.1944      4   0.00   0.00000   0.00000   0.00000  4.6  0.8
     60    6   -50.6047   -56.1503    -1.5212      4   0.00   0.00000   0.00000   0.00000  4.6  0.8
     61    2   -41.4962   -56.4974    17.6913      5   0.80   0.00000   0.00000   0.00000  4.6  0.8
     62    3   -42.7182   -58.1762    16.7079      5  -0.80   0.00000   0.00000   0.00000  4.9  1.5
     63    4   -42.6535   -58.5073    13.8821      5   0.00   0.30454   0.28163  -0.03644  4.7  1.1
     64    5   -44.4554   -58.7606    12.0663      5   0.00  -0.19863   0.37844  -0.29707  4.7  1.1
     65    6   -44.6436   -57.1474     9.9957      5   0.00   0.00000   0.00000   0.00000  4.6  0.8
     66    6   -44.6782   -58.8670     7.4882      5   0.00   0.00000   0.00000   0.00000  4.6  0.8
     67    6   -44.5757   -57.9041     5.7688      5   0.00   0.00000   0.00000   0.00000  4.6  0.8
     68    6   -44.4490   -59.0157     3.0250      5   0.00   0.00000   0.00000   0.00000  4.6  0.8
     69    6   -44.4011   -57.3268     1.5601      5   0.00   0.00000   0.00000   0.00000  4.6  0.8
     70    5   -40.6830   -57.2113    12.4098      5   0.00  -0.33070  -0.02853  -0.40093  4.7  1.1
     71    6   -40.7391   -58.4789     9.7096      5   0.00   0.00000   0.00000   0.00000  4.6  0.8
     72    6   -40.7299   -58.1187     7.7702      5   0.00   0.00000   0.00000   0.00000  4.6  0.8
     73    6   -40.6606   -57.2433     5.3538      5   0.00   0.00000   0.00000   0.00000  4.6  0.8
     74    6   -40.7011   -57.4744     3.2971      5   0.00   0.00000   0.00000   0.00000  4.6  0.8
     75    6   -40.4212   -59.5496     1.2764      5   0.00   0.00000   0.00000   0.00000  4.6  0.8
     76    2   -41.8318   -56.6354   -17.8506      6   0.80   0.00000   0.00000   0.00000  4.6  0.8
     77    3   -42.5228   -58.1915   -16.6507      6  -0.80   0.00000   0.00000   0.00000  4.9  1.5
     78    4   -42.8009   -58.4092   -13.8677      6   0.00   0.07719  -0.06570  -0.40387  4.7  1.1
     79    5   -41.5106   -59.8363   -12.1788      6   0.00  -0.37653  -0.35935   0.00362  4.7  1.1
     80    6   -41.4937   -59.9761    -9.8841      6   0.00   0.00000   0.00000   0.00000  4.6  0.8
     81    6   -43.7683   -60.0739    -7.7143      6   0.00   0.00000   0.00000   0.00000  4.6  0.8
     82    6   -41.6523   -60.1720    -5.4467      6   0.00   0.00000   0.00000   0.00000  4.6  0.8
     83    6   -42.7480   -60.0857    -3.2967      6   0.00   0.00000   0.00000   0.00000  4.6  0.8
     84    6   -43.9786   -60.0817    -1.6139      6   0.00   0.00000   0.00000   0.00000  4.6  0.8
     85    5   -43.8040   -56.1193   -12.1759      6   0.00   0.04810  -0.39448   0.33614  4.7  1.1
     86    6   -43.8851   -56.1472    -9.9712      6   0.00   0.00000   0.00000   0.00000  4.6  0.8
     87    6   -41.6584   -56.3219    -7.5895      6   0.00   0.00000   0.00000   0.00000  4.6  0.8
     88    6   -42.7296   -56.2028    -5.6020      6   0.00   0.00000   0.00000   0.00000  4.6  0.8
     89    6   -42.2228   -56.2490    -3.1136      6   0.00   0.00000   0.00000   0.00000  4.6  0.8
     90    6   -41.5814   -56.3238    -1.3375      6   0.00   0.00000   0.00000   0.00000  4.6  0.8
     91    2   -35.2441   -57.4415    18.5175      7   0.80   0.00000   0.00000   0.00000  4.6  0.8
     92    3   -34.8133   -58.0815    16.6921      7  -0.80   0.00000   0.00000   0.00000  4.9  1.5
     93    4   -34.8448   -58.0715    14.0684      7   0.00  -0.08741   0.14002  -0.38229  4.7  1.1
     94    5   -36.9191   -58.7158    12.3186      7   0.00   0.13581   0.49434  -0.09002  4.7  1.1
     95    6   -36.7447   -57.9550    10.0106      7   0.00   0.00000   0.00000   0.00000  4.6  0.8
     96    6   -36.7989   -58.8239     7.6537      7   0.00   0.00000   0.00000   0.00000  4.6  0.8
     97    6   -36.8452   -58.5454     5.6349      7   0.00   0.00000   0.00000   0.00000  4.6  0.8
     98    6   -36.7913   -58.1050     3.1790      7   0.00   0.00000   0.00000   0.00000  4.6  0.8
     99    6   -36.8618   -56.7365     1.5008      7   0.00   0.00000   0.00000   0.00000  4.6  0.8
    100    5   -32.9065   -58.4534    12.1888      7   0.00  -0.20102   0.23230  -0.42018  4.7  1.1
    101    6   -32.6835   -58.8892     9.9444      7   0.00   0.00000   0.00000   0.00000  4.6  0.8
    102    6   -32.9319   -57.8746     7.6401      7   0.00   0.00000   0.00000   0.00000  4.6  0.8
    103    6   -32.9274   -57.5751     5.6066      7   0.00   0.00000   0.00000   0.00000  4.6  0.8
    104    6   -32.8700   -58.4623     3.0589      7   0.00   0.00000   0.00000   0.00000  4.6  0.8
    105    6   -32.8169   -59.0605     1.4122      7   0.00   0.00000   0.00000   0.00000  4.6  0.8
    106    2   -34.5248   -57.8191   -18.5247      8   0.80   0.00000   0.00000   0.00000  4.6  0.8
    107    3   -35.0648   -58.1493   -16.6534      8  -0.80   0.00000   0.00000   0.00000  4.9  1.5
    108    4   -34.8895   -58.1567   -14.0203      8   0.00  -0.20773   0.22348   0.28336  4.7  1.1
    109    5   -34.0388   -60.1078   -12.3669      8   0.00  -0.24931   0.44777  -0.09094  4.7  1.1
    110    6   -34.5977   -60.0793    -9.8309      8   0.00   0.00000   0.00000   0.00000  4.6  0.8
    111    6   -34.1632   -59.9818    -7.6829      8   0.00   0.00000   0.00000   0.00000  4.6  0.8
    112    6   -34.0050   -59.8701    -5.3994      8   0.00   0.00000   0.00000   0.00000  4.6  0.8
    113    6   -35.6933   -59.9734    -3.2414      8   0.00   0.00000   0.00000   0.00000  4.6  0.8
    114    6   -36.1399   -60.0143    -1.2676      8   0.00   0.00000   0.00000   0.00000  4.6  0.8
    115    5   -35.6726   -56.1044   -12.1837      8   0.00  -0.14332  -0.16483   0.47245  4.7  1.1
    116    6   -35.2553   -56.1813    -9.9928      8   0.00   0.00000   0.00000   0.00000  4.6  0.8
    117    6   -35.6660   -56.2324    -7.5176      8   0.00   0.00000   0.00000   0.00000  4.6  0.8
    118    6   -36.1330   -56.0745    -5.5853      8   0.00   0.00000   0.00000   0.00000  4.6  0.8
    119    6   -33.9492   -56.3102    -3.0822      8   0.00   0.00000   0.00000   0.00000  4.6  0.8
    120    6   -33.7721   -56.2633    -1.6214      8   0.00   0.00000   0.00000   0.00000  4.6  0.8
    121    2   -27.7837   -56.9288    17.9425      9   0.80   0.00000   0.00000   0.00000  4.6  0.8
    122    3   -27.0451   -58.2421    16.6667      9  -0.80   0.00000   0.00000   0.00000  4.9  1.5
    123    4   -27.0458   -58.4364    13.8743      9   0.00   0.19696  -0.03263  -0.36542  4.7  1.1
    124    5   -29.0851   -57.4030    12.4063      9   0.00   0.25951  -0.44394  -0.08058  4.7  1.1
    125    6   -28.9285   -56.8352     9.8229      9   0.00   0.00000   0.00000   0.00000  4.6  0.8
    126    6   -28.9984   -57.3785     7.6772      9   0.00   0.00000   0.00000   0.00000  4.6  0.8
    127    6   -29.1102   -58.8696     5.5258      9   0.00   0.00000   0.00000   0.00000  4.6  0.8
    128    6   -28.9035   -58.8864     3.2872      9   0.00   0.00000   0.00000   0.00000  4.6  0.8
    129    6   -29.1575   -56.6442     1.4072      9   0.00   0.00000   0.00000   0.00000  4.6  0.8
    130    5   -25.2317   -58.2732    12.1014      9   0.00   0.09303   0.48985  -0.14936  4.7  1.1
    131    6   -25.2342   -59.4091     9.8640      9   0.00   0.00000   0.00000   0.00000  4.6  0.8
    132    6   -25.1955   -58.5239     7.5743      9   0.00   0.00000   0.00000   0.00000  4.6  0.8
    133    6   -25.1842   -58.2181     5.6131      9   0.00   0.00000   0.00000   0.00000  4.6  0.8
    134    6   -25.1901   -56.9235     3.2160      9   0.00   0.00000   0.00000   0.00000  4.6  0.8
    135    6   -25.3047   -59.2179     1.3278      9   0.00   0.00000   0.00000   0.00000  4.6  0.8
    136    2   -27.5705   -56.7209   -18.0161     10   0.80   0.00000   0.00000   0.00000  4.6  0.8
    137    3   -27.0102   -58.2809   -16.4764     10  -0.80   0.00000   0.00000   0.00000  4.9  1.5
    138    4   -27.0690   -58.4348   -13.9079     10   0.00  -0.21789  -0.23089  -0.26945  4.7  1.1
    139    5   -26.6793   -60.1845   -12.1097     10   0.00   0.18528   0.48512  -0.03543  4.7  1.1
    140    6   -27.6778   -60.1003    -9.7703     10   0.00   0.00000   0.00000   0.00000  4.6  0.8
    141    6   -28.2444   -60.2058    -7.5822     10   0.00   0.00000   0.00000   0.00000  4.6  0.8
    142    6   -26.8595   -60.0509    -5.4844     10   0.00   0.00000   0.00000   0.00000  4.6  0.8
    143    6   -28.1400   -59.9346    -3.0889     10   0.00   0.00000   0.00000   0.00000  4.6  0.8
    144    6   -28.4851   -59.9144    -1.3910     10   0.00   0.00000   0.00000   0.00000  4.6  0.8
    145    5   -27.8381   -56.1973   -12.2456     10   0.00   0.42224  -0.30426   0.00732  4.7  1.1
    146    6   -27.4457   -56.1420    -9.9585     10   0.00   0.00000   0.00000   0.00000  4.6  0.8
    147    6   -26.1626   -56.3458    -7.6810     10   0.00   0.00000   0.00000   0.00000  4.6  0.8
    148    6   -27.9725   -56.1168    -5.5326     10   0.00   0.00000   0.00000   0.00000  4.6  0.8
    149    6   -26.4028   -56.2791    -3.0832     10   0.00   0.00000   0.00000   0.00000  4.6  0.8
    150    6   -25.7643   -56.0645    -1.5396     10   0.00   0.00000   0.00000   0.00000  4.6  0.8
    151    2   -18.6367   -57.6286    18.4411     11   0.80   0.00000   0.00000   0.00000  4.6  0.8
    152    3   -19.5621   -58.0665    16.6580     11  -0.80   0.00000   0.00000   0.00000  4.9  1.5
    153    4   -19.3342   -58.0550    13.9902     11   0.00   0.34830   0.16751  -0.15498  4.7  1.1
    154    5   -21.3011   -58.1888    12.3604     11   0.00  -0.04068   0.12513   0.50359  4.7  1.1
    155    6   -21.4107   -57.1712    10.0042     11   0.00   0.00000   0.00000   0.00000  4.6  0.8
    156    6   -21.2175   -58.3967     7.7003     11   0.00   0.00000   0.00000   0.00000  4.6  0.8
    157    6   -21.2751   -57.7224     5.7392     11   0.00   0.00000   0.00000   0.00000  4.6  0.8
    158    6   -21.4218   -58.9697     3.1717     11   0.00   0.00000   0.00000   0.00000  4.6  0.8
    159    6   -21.4407   -58.0366     1.5570     11   0.00   0.00000   0.00000   0.00000  4.6  0.8
    160    5   -17.3365   -58.2195    12.2266     11   0.00  -0.50447  -0.07958  -0.10047  4.7  1.1
    161    6   -17.4783   -59.1467     9.8713     11   0.00   0.00000   0.00000   0.00000  4.6  0.8
    162    6   -17.3383   -57.2191     7.6764     11   0.00   0.00000   0.00000   0.00000  4.6  0.8
    163    6   -17.3230   -57.4877     5.6494     11   0.00   0.00000   0.00000   0.00000  4.6  0.8
    164    6   -17.4554   -58.0914     3.1804     11   0.00   0.00000   0.00000   0.00000  4.6  0.8
    165    6   -17.2309   -57.6778     1.4063     11   0.00   0.00000   0.00000   0.00000  4.6  0.8
    166    2   -19.0029   -58.0380   -18.5604     12   0.80   0.00000   0.00000   0.00000  4.6  0.8
    167    3   -19.4327   -58.0408   -16.6046     12  -0.80   0.00000   0.00000   0.00000  4.9  1.5
    168    4   -19.4228   -58.1327   -14.0437     12   0.00  -0.05721  -0.36576   0.19063  4.7  1.1
    169    5   -19.1173   -59.9900   -12.0836     12   0.00   0.07035   0.48236  -0.18248  4.7  1.1
    170    6   -18.7682   -59.9154    -9.9789     12   0.00   0.00000   0.00000   0.00000  4.6  0.8
    171    6   -19.1795   -60.2347    -7.5435     12   0.00   0.00000   0.00000   0.00000  4.6  0.8
    172    6   -18.6046   -60.1157    -5.6315     12   0.00   0.00000   0.00000   0.00000  4.6  0.8
    173    6   -19.1904   -60.1217    -3.0715     12   0.00   0.00000   0.00000   0.00000  4.6  0.8
    174    6   -19.2044   -60.1675    -1.3464     12   0.00   0.00000   0.00000   0.00000  4.6  0.8
    175    5   -19.5840   -56.0595   -12.4579     12   0.00   0.20119   0.32903  -0.34954  4.7  1.1
    176    6   -20.5774   -56.0570    -9.9801     12   0.00   0.00000   0.00000   0.00000  4.6  0.8
    177    6   -18.9244   -56.2419    -7.8201     12   0.00   0.00000   0.00000   0.00000  4.6  0.8
    178    6   -20.0718   -56.2812    -5.7002     12   0.00   0.00000   0.00000   0.00000  4.6  0.8
    179    6   -19.2018   -56.1825    -3.3317     12   0.00   0.00000   0.00000   0.00000  4.6  0.8
    180    6   -19.5923   -56.1500    -1.5623     12   0.00   0.00000   0.00000   0.00000  4.6  0.8
    181    2   -13.0949   -57.0452    18.0962     13   0.80   0.00000   0.00000   0.00000  4.6  0.8
    182    3   -11.4226   -58.0991    16.6158     13  -0.80   0.00000   0.00000   0.00000  4.9  1.5
    183    4   -11.4435   -58.4034    14.0556     13   0.00   0.38345  -0.09493   0.13170  4.7  1.1
    184    5   -13.3321   -58.5358    12.3251     13   0.00   0.34435  -0.21090  -0.32843  4.7  1.1
    185    6   -13.6007   -57.3277     9.9803     13   0.00   0.00000   0.00000   0.00000  4.6  0.8
    186    6   -13.5688   -58.8954     7.6371     13   0.00   0.00000   0.00000   0.00000  4.6  0.8
    187    6   -13.5696   -58.9478     5.7384     13   0.00   0.00000   0.00000   0.00000  4.6  0.8
    188    6   -13.5058   -57.5303     3.1959     13   0.00   0.00000   0.00000   0.00000  4.6  0.8
    189    6   -13.4234   -59.3945     1.3989     13   0.00   0.00000   0.00000   0.00000  4.6  0.8
    190    5    -9.4436   -57.0871    12.1982     13   0.00  -0.00322   0.50775   0.11446  4.7  1.1
    191    6    -9.6732   -58.8820     9.8403     13   0.00   0.00000   0.00000   0.00000  4.6  0.8
    192    6    -9.7703   -57.3351     7.5677     13   0.00   0.00000   0.00000   0.00000  4.6  0.8
    193    6    -9.5415   -58.6058     5.4171     13   0.00   0.00000   0.00000   0.00000  4.6  0.8
    194    6    -9.6776   -58.2699     3.2356     13   0.00   0.00000   0.00000   0.00000  4.6  0.8
    195    6    -9.5596   -56.5842     1.3388     13   0.00   0.00000   0.00000   0.00000  4.6  0.8
    196    2   -13.0126   -56.7800   -17.9346     14   0.80   0.00000   0.00000   0.00000  4.6  0.8
    197    3   -11.5227   -58.1559   -16.6742     14  -0.80   0.00000   0.00000   0.00000  4.9  1.5
    198    4   -11.3898   -58.3455   -14.0458     14   0.00  -0.01544  -0.40858  -0.07884  4.7  1.1
    199    5   -10.8807   -60.0792   -12.2972     14   0.00  -0.38466  -0.08257  -0.34079  4.7  1.1
    200    6   -10.8112   -60.2035    -9.7918     14   0.00   0.00000   0.00000   0.00000  4.6  0.8
    201    6   -11.9469   -60.1514    -7.6399     14   0.00   0.00000   0.00000   0.00000  4.6  0.8
    202    6   -12.8312   -60.2126    -5.4680     14   0.00   0.00000   0.00000   0.00000  4.6  0.8
    203    6   -11.4575   -60.0779    -3.1476     14   0.00   0.00000   0.00000   0.00000  4.6  0.8
    204    6   -10.1742   -60.1677    -1.3979     14   0.00   0.00000   0.00000   0.00000  4.6  0.8
    205    5   -12.6749   -56.1960   -12.2481     14   0.00   0.17630  -0.43487   0.22522  4.7  1.1
    206    6   -11.9710   -56.2702   -10.0010     14   0.00   0.00000   0.00000   0.00000  4.6  0.8
    207    6   -11.0864   -56.2296    -7.6513     14   0.00   0.00000   0.00000   0.00000  4.6  0.8
    208    6   -10.8552   -56.3904    -5.6277     14   0.00   0.00000   0.00000   0.00000  4.6  0.8
    209    6   -11.3139   -56.2262    -3.1706     14   0.00   0.00000   0.00000   0.00000  4.6  0.8
    210    6   -13.0302   -56.4099    -1.6394     14   0.00   0.00000   0.00000   0.00000  4.6  0.8
    211    2    -2.8365   -57.5527    18.4954     15   0.80   0.00000   0.00000   0.00000  4.6  0.8
    212    3    -3.9597   -58.0855    16.6794     15  -0.80   0.00000   0.00000   0.00000  4.9  1.5
    213    4    -3.9776   -58.1644    14.0340     15   0.00   0.23655   0.01672   0.34227  4.7  1.1
    214    5    -5.8029   -59.3988    12.2487     15   0.00  -0.09556   0.51151  -0.01218  4.7  1.1
    215    6    -5.7980   -57.3772     9.8611     15   0.00   0.00000   0.00000   0.00000  4.6  0.8
    216    6    -5.8096   -58.1615     7.6508     15   0.00   0.00000   0.00000   0.00000  4.6  0.8
    217    6    -5.6168   -57.1644     5.5355     15   0.00   0.00000   0.00000   0.00000  4.6  0.8
    218    6    -5.7184   -58.7101     3.1361     15   0.00   0.00000   0.00000   0.00000  4.6  0.8
    219    6    -6.0597   -59.2784     1.5851     15   0.00   0.00000   0.00000   0.00000  4.6  0.8
    220    5    -2.1081   -57.0747    12.3374     15   0.00   0.36816  -0.15061   0.33570  4.7  1.1
    221    6    -1.9577   -58.9473     9.9227     15   0.00   0.00000   0.00000   0.00000  4.6  0.8
    222    6    -1.8405   -58.7046     7.6789     15   0.00   0.00000   0.00000   0.00000  4.6  0.8
    223    6    -1.8235   -59.3007     5.6166     15   0.00   0.00000   0.00000   0.00000  4.6  0.8
    224    6    -1.9475   -57.0552     3.1759     15   0.00   0.00000   0.00000   0.00000  4.6  0.8
    225    6    -1.9441   -58.1639     1.4081     15   0.00   0.00000   0.00000   0.00000  4.6  0.8
    226    2    -2.9919   -57.5007   -18.4553     16   0.80   0.00000   0.00000   0.00000  4.6  0.8
    227    3    -3.9639   -58.0788   -16.5730     16  -0.80   0.00000   0.00000   0.00000  4.9  1.5
    228    4    -4.1286   -58.1301   -14.0733     16   0.00  -0.29916   0.02536  -0.28853  4.7  1.1
    229    5    -4.9319   -59.8505   -12.1025     16   0.00  -0.28289  -0.43633   0.02265  4.7  1.1
    230    6    -4.0619   -60.0625   -10.1161     16   0.00   0.00000   0.00000   0.00000  4.6  0.8
    231    6    -2.6560   -60.2689    -7.5826     16   0.00   0.00000   0.00000   0.00000  4.6  0.8
    232    6    -3.4043   -60.0708    -5.9085     16   0.00   0.00000   0.00000   0.00000  4.6  0.8
    233    6    -3.7443   -60.0920    -3.0471     16   0.00   0.00000   0.00000   0.00000  4.6  0.8
    234    6    -3.8060   -60.1910    -1.7540     16   0.00   0.00000   0.00000   0.00000  4.6  0.8
    235    5    -2.6707   -56.0821   -12.2797     16   0.00  -0.27149  -0.41389  -0.16096  4.7  1.1
    236    6    -3.0598   -56.2234    -9.8482     16   0.00   0.00000   0.00000   0.00000  4.6  0.8
    237    6    -4.4765   -56.4078    -7.7838     16   0.00   0.00000   0.00000   0.00000  4.6  0.8
    238    6    -4.6552   -56.2243    -5.5452     16   0.00   0.00000   0.00000   0.00000  4.6  0.8
    239    6    -4.4220   -56.1841    -3.2774     16   0.00   0.00000   0.00000   0.00000  4.6  0.8
    240    6    -4.6193   -56.1903    -1.1516     16   0.00   0.00000   0.00000   0.00000  4.6  0.8
    241    2     3.1679   -56.8198    18.2892     17   0.80   0.00000   0.00000   0.00000  4.6  0.8
    242    3     3.8325   -58.2372    16.6748     17  -0.80   0.00000   0.00000   0.00000  4.9  1.5
    243    4     4.0006   -58.2343    14.0173     17   0.00   0.29800   0.25907   0.13217  4.7  1.1
    244    5     1.7562   -58.8278    12.2017     17   0.00  -0.02633   0.51565  -0.06584  4.7  1.1
    245    6     1.8252   -57.3223    10.0053     17   0.00   0.00000   0.00000   0.00000  4.6  0.8
    246    6     1.9936   -57.4034     7.5494     17   0.00   0.00000   0.00000   0.00000  4.6  0.8
    247    6     1.9963   -56.9908     5.6887     17   0.00   0.00000   0.00000   0.00000  4.6  0.8
    248    6     1.7993   -58.9996     3.1654     17   0.00   0.00000   0.00000   0.00000  4.6  0.8
    249    6     1.9651   -57.2108     1.4356     17   0.00   0.00000   0.00000   0.00000  4.6  0.8
    250    5     5.7382   -57.7319    12.3053     17   0.00   0.21097  -0.17496   0.44249  4.7  1.1
    251    6     5.8020   -58.2198     9.8588     17   0.00   0.00000   0.00000   0.00000  4.6  0.8
    252    6     5.8889   -58.6915     7.6836     17   0.00   0.00000   0.00000   0.00000  4.6  0.8
    253    6     5.8182   -59.3437     5.6667     17   0.00   0.00000   0.00000   0.00000  4.6  0.8
    254    6     5.7305   -58.1265     3.1990     17   0.00   0.00000   0.00000   0.00000  4.6  0.8
    255    6     5.9154   -58.9005     1.4081     17   0.00   0.00000   0.00000   0.00000  4.6  0.8
    256    2     3.2048   -57.6529   -18.3748     18   0.80   0.00000   0.00000   0.00000  4.6  0.8
    257    3     3.7822   -57.9609   -16.6955     18  -0.80   0.00000   0.00000   0.00000  4.9  1.5
    258    4     3.8175   -58.2528   -13.9808     18   0.00  -0.35070  -0.10932   0.19609  4.7  1.1
    259    5     4.3877   -60.0525   -12.3704     18   0.00  -0.19520   0.26131   0.40563  4.7  1.1
    260    6     4.7519   -60.2388    -9.8431     18   0.00   0.00000   0.00000   0.00000  4.6  0.8
    261    6     3.3357   -60.0737    -7.6876     18   0.00   0.00000   0.00000   0.00000  4.6  0.8
    262    6     3.4984   -59.9559    -5.5913     18   0.00   0.00000   0.00000   0.00000  4.6  0.8
    263    6     3.3402   -60.0772    -3.1577     18   0.00   0.00000   0.00000   0.00000  4.6  0.8
    264    6     2.9173   -60.2526    -1.3331     18   0.00   0.00000   0.00000   0.00000  4.6  0.8
    265    5     4.3746   -56.0021   -12.2956     18   0.00   0.23677   0.27332  -0.37438  4.7  1.1
    266    6     3.7664   -56.2713    -9.9752     18   0.00   0.00000   0.00000   0.00000  4.6  0.8
    267    6     4.5013   -56.2093    -7.6732     18   0.00   0.00000   0.00000   0.00000  4.6  0.8
    268    6     5.1321   -56.0840    -5.7810     18   0.00   0.00000   0.00000   0.00000  4.6  0.8
    269    6     3.4131   -56.1291    -3.2324     18   0.00   0.00000   0.00000   0.00000  4.6  0.8
    270    6     4.7235   -56.2062    -1.5490     18   0.00   0.00000   0.00000   0.00000  4.6  0.8
    271    2    12.7127   -56.9090    18.1295     19   0.80   0.00000   0.00000   0.00000  4.6  0.8
    272    3    11.5321   -58.1023    16.6561     19  -0.80   0.00000   0.00000   0.00000  4.9  1.5
    273    4    11.6216   -58.3827    14.0079     19   0.00   0.32607  -0.22330  -0.13117  4.7  1.1
    274    5     9.7982   -57.7999    12.1119     19   0.00   0.42575   0.29158  -0.06807  4.7  1.1
    275    6     9.7805   -58.8562     9.9391     19   0.00   0.00000   0.00000   0.00000  4.6  0.8
    276    6     9.6853   -56.9565     7.4778     19   0.00   0.00000   0.00000   0.00000  4.6  0.8
    277    6     9.6799   -57.1100     5.7056     19   0.00   0.00000   0.00000   0.00000  4.6  0.8
    278    6     9.6763   -58.2137     3.1614     19   0.00   0.00000   0.00000   0.00000  4.6  0.8
    279    6     9.6435   -56.8879     1.3743     19   0.00   0.00000   0.00000   0.00000  4.6  0.8
    280    5    13.6940   -59.1293    12.5090     19   0.00  -0.18819  -0.46828   0.12736  4.7  1.1
    281    6    13.5271   -56.9796     9.7416     19   0.00   0.00000   0.00000   0.00000  4.6  0.8
    282    6    13.3821   -58.9293     7.7733     19   0.00   0.00000   0.00000   0.00000  4.6  0.8
    283    6    13.4495   -59.4162     5.7563     19   0.00   0.00000   0.00000   0.00000  4.6  0.8
    284    6    13.5994   -58.4017     3.3099     19   0.00   0.00000   0.00000   0.00000  4.6  0.8
    285    6    13.5448   -58.7926     1.5052     19   0.00   0.00000   0.00000   0.00000  4.6  0.8
    286    2    12.8755   -56.5792   -17.9006     20   0.80   0.00000   0.00000   0.00000  4.6  0.8
    287    3    11.5980   -58.2648   -16.7280     20  -0.80   0.00000   0.00000   0.00000  4.9  1.5
    288    4    11.4241   -58.2772   -14.0098     20   0.00   0.09448   0.18857   0.35904  4.7  1.1
    289    5    12.2877   -60.0036   -12.0886     20   0.00   0.16863   0.08732   0.48462  4.7  1.1
    290    6    11.2295   -59.9373    -9.8905     20   0.00   0.00000   0.00000   0.00000  4.6  0.8
    291    6    12.8902   -60.1436    -7.4964     20   0.00   0.00000   0.00000   0.00000  4.6  0.8
    292    6    11.3462   -60.2001    -5.4936     20   0.00   0.00000   0.00000   0.00000  4.6  0.8
    293    6    10.9392   -60.1300    -3.2047     20   0.00   0.00000   0.00000   0.00000  4.6  0.8
    294    6    10.6492   -60.0528    -1.2751     20   0.00   0.00000   0.00000   0.00000  4.6  0.8
    295    5    10.6466   -56.0923   -12.4590     20   0.00  -0.12784  -0.30559   0.40149  4.7  1.1
    296    6    12.7317   -56.0733    -9.8542     20   0.00   0.00000   0.00000   0.00000  4.6  0.8