LAMMPS 'data.' description - created with Brahms (www.personal.soton.ac.uk/orsi/brahms)

    24576 atoms
    14336 bonds
    16384 angles

        6 atom types
        5 bond types
        5 angle types

          -62           62      xlo xhi
          -62           62      ylo yhi
          -25           75      zlo zhi

Atoms

      1    2   -56.3815   -54.3726    18.5379      1   0.70   0.00000   0.00000   0.00000  4.5  0.9
      2    3   -56.7081   -59.6306    19.9853      1  -0.70   0.00000   0.00000   0.00000  5.2  1.2
      3    4   -59.4138   -58.7886    16.8146      1   0.00   0.29039   0.13883  -0.08585  4.6  1.2
      4    5   -61.1046   -60.8009    13.9931      1   0.00  -0.12699   0.34897  -0.18837  4.6  1.2
      5    6   -59.9826   -60.5808    10.9278      1   0.00   0.00000   0.00000   0.00000  4.5  0.9
      6    6   -61.1291   -58.4487     8.7730      1   0.00   0.00000   0.00000   0.00000  4.5  0.9
      7    6   -60.8759   -60.5474     5.6637      1   0.00   0.00000   0.00000   0.00000  4.5  0.9
      8    6   -61.9959   -60.6443     2.1170      1   0.00   0.00000   0.00000   0.00000  4.5  0.9
      9    6   -59.3337   -60.7441    -0.9948      1   0.00   0.00000   0.00000   0.00000  4.5  0.9
     10    5   -58.5186   -56.7867    14.4698      1   0.00   0.12448  -0.09224  -0.38650  4.6  1.2
     11    6   -57.7613   -56.3308    11.3999      1   0.00   0.00000   0.00000   0.00000  4.5  0.9
     12    6   -56.7636   -56.6877     8.3320      1   0.00   0.00000   0.00000   0.00000  4.5  0.9
     13    6   -58.4501   -56.2065     5.1210      1   0.00   0.00000   0.00000   0.00000  4.5  0.9
     14    6   -57.5013   -58.3929     2.9648      1   0.00   0.00000   0.00000   0.00000  4.5  0.9
     15    6   -55.7050   -61.3217     4.2848      1   0.00   0.00000   0.00000   0.00000  4.5  0.9
     16    2   -60.1668   -56.1127   -20.5606      2   0.70   0.00000   0.00000   0.00000  4.5  0.9
     17    3   -58.7279   -61.0887   -19.3400      2  -0.70   0.00000   0.00000   0.00000  5.2  1.2
     18    4   -58.0726   -59.5997   -16.6730      2   0.00  -0.16565   0.09775  -0.27198  4.6  1.2
     19    5   -55.9584   -59.7367   -14.4423      2   0.00  -0.10892   0.37038   0.15602  4.6  1.2
     20    6   -57.3642   -60.4875   -11.2292      2   0.00   0.00000   0.00000   0.00000  4.5  0.9
     21    6   -59.3715   -60.0250    -7.9613      2   0.00   0.00000   0.00000   0.00000  4.5  0.9
     22    6   -57.2084   -60.0082    -6.2813      2   0.00   0.00000   0.00000   0.00000  4.5  0.9
     23    6   -54.6936   -61.0647    -3.6639      2   0.00   0.00000   0.00000   0.00000  4.5  0.9
     24    6   -54.1276   -60.6084    -0.4362      2   0.00   0.00000   0.00000   0.00000  4.5  0.9
     25    5   -59.7630   -55.9484   -15.7870      2   0.00   0.10944   0.30581   0.26056  4.6  1.2
     26    6   -59.6796   -56.3798   -11.7106      2   0.00   0.00000   0.00000   0.00000  4.5  0.9
     27    6   -57.5932   -55.7007    -9.1352      2   0.00   0.00000   0.00000   0.00000  4.5  0.9
     28    6   -59.9408   -55.0979    -7.0011      2   0.00   0.00000   0.00000   0.00000  4.5  0.9
     29    6   -59.8654   -56.5693    -3.9491      2   0.00   0.00000   0.00000   0.00000  4.5  0.9
     30    6   -56.9200   -56.7710    -2.1929      2   0.00   0.00000   0.00000   0.00000  4.5  0.9
     31    2   -51.7705   -60.1822    18.7237      3   0.70   0.00000   0.00000   0.00000  4.5  0.9
     32    3   -48.8333   -56.1242    20.4664      3  -0.70   0.00000   0.00000   0.00000  5.2  1.2
     33    4   -49.6298   -55.2374    18.2039      3   0.00   0.17313   0.26508   0.10356  4.6  1.2
     34    5   -53.0032   -56.1434    15.8773      3   0.00   0.13381   0.02152  -0.39373  4.6  1.2
     35    6   -53.5942   -56.7473    13.3378      3   0.00   0.00000   0.00000   0.00000  4.5  0.9
     36    6   -52.2541   -57.9417    10.7924      3   0.00   0.00000   0.00000   0.00000  4.5  0.9
     37    6   -52.6122   -58.4616     7.0818      3   0.00   0.00000   0.00000   0.00000  4.5  0.9
     38    6   -53.2699   -56.6029     4.8410      3   0.00   0.00000   0.00000   0.00000  4.5  0.9
     39    6   -52.8066   -56.0400     1.3536      3   0.00   0.00000   0.00000   0.00000  4.5  0.9
     40    5   -48.5982   -57.0661    15.3925      3   0.00  -0.03778  -0.41274   0.04012  4.6  1.2
     41    6   -48.1253   -57.4898    13.2409      3   0.00   0.00000   0.00000   0.00000  4.5  0.9
     42    6   -47.6870   -56.2221    10.7527      3   0.00   0.00000   0.00000   0.00000  4.5  0.9
     43    6   -48.5860   -56.0076     7.9047      3   0.00   0.00000   0.00000   0.00000  4.5  0.9
     44    6   -48.5729   -56.0451     4.1806      3   0.00   0.00000   0.00000   0.00000  4.5  0.9
     45    6   -48.4264   -57.3712     0.8613      3   0.00   0.00000   0.00000   0.00000  4.5  0.9
     46    2   -52.4222    61.8648   -18.2052      4   0.70   0.00000   0.00000   0.00000  4.5  0.9
     47    3   -48.2819   -57.7993   -19.3754      4  -0.70   0.00000   0.00000   0.00000  5.2  1.2
     48    4   -49.8962   -57.1418   -16.8957      4   0.00  -0.06552   0.08470  -0.31544  4.6  1.2
     49    5   -50.8308   -59.1103   -14.4580      4   0.00  -0.36676   0.17038   0.09925  4.6  1.2
     50    6   -51.5369   -60.2090   -11.9574      4   0.00   0.00000   0.00000   0.00000  4.5  0.9
     51    6   -53.4458   -59.0504    -8.9918      4   0.00   0.00000   0.00000   0.00000  4.5  0.9
     52    6   -50.4428   -60.1562    -7.5975      4   0.00   0.00000   0.00000   0.00000  4.5  0.9
     53    6   -48.3251   -61.8485    -5.8303      4   0.00   0.00000   0.00000   0.00000  4.5  0.9
     54    6   -49.6886   -61.1926    -2.0061      4   0.00   0.00000   0.00000   0.00000  4.5  0.9
     55    5   -53.8491   -55.2599   -15.9447      4   0.00   0.34521   0.15570   0.17313  4.6  1.2
     56    6   -53.2424   -55.2204   -12.2760      4   0.00   0.00000   0.00000   0.00000  4.5  0.9
     57    6   -49.8437   -55.8439   -10.6704      4   0.00   0.00000   0.00000   0.00000  4.5  0.9
     58    6   -47.8897   -56.1888    -7.6166      4   0.00   0.00000   0.00000   0.00000  4.5  0.9
     59    6   -48.6351   -56.6319    -4.0222      4   0.00   0.00000   0.00000   0.00000  4.5  0.9
     60    6   -52.3799   -57.0580    -3.8205      4   0.00   0.00000   0.00000   0.00000  4.5  0.9
     61    2   -45.1321   -58.9147    18.7661      5   0.70   0.00000   0.00000   0.00000  4.5  0.9
     62    3   -40.7749   -57.0698    18.3805      5  -0.70   0.00000   0.00000   0.00000  5.2  1.2
     63    4   -40.3652   -57.5112    16.2598      5   0.00   0.26246   0.14232  -0.14774  4.6  1.2
     64    5   -43.0025   -59.1380    14.3391      5   0.00   0.19455   0.33152  -0.16011  4.6  1.2
     65    6   -43.8074   -58.8051    11.4887      5   0.00   0.00000   0.00000   0.00000  4.5  0.9
     66    6   -44.5611   -60.2985     9.2307      5   0.00   0.00000   0.00000   0.00000  4.5  0.9
     67    6   -45.1397   -58.8299     6.0835      5   0.00   0.00000   0.00000   0.00000  4.5  0.9
     68    6   -44.2541   -57.1098     2.2138      5   0.00   0.00000   0.00000   0.00000  4.5  0.9
     69    6   -44.4319   -55.0434     0.4715      5   0.00   0.00000   0.00000   0.00000  4.5  0.9
     70    5   -38.7969   -57.9860    12.5726      5   0.00  -0.16296  -0.23463  -0.30295  4.6  1.2
     71    6   -38.4032   -61.9160    10.3724      5   0.00   0.00000   0.00000   0.00000  4.5  0.9
     72    6   -39.9555   -61.5822     7.8971      5   0.00   0.00000   0.00000   0.00000  4.5  0.9
     73    6   -40.6537   -57.4606     8.2860      5   0.00   0.00000   0.00000   0.00000  4.5  0.9
     74    6   -41.6700   -55.7501     5.5445      5   0.00   0.00000   0.00000   0.00000  4.5  0.9
     75    6   -40.7911   -60.1336     3.1378      5   0.00   0.00000   0.00000   0.00000  4.5  0.9
     76    2   -42.4530   -58.6563   -20.2867      6   0.70   0.00000   0.00000   0.00000  4.5  0.9
     77    3   -40.6377   -54.4927   -18.7143      6  -0.70   0.00000   0.00000   0.00000  5.2  1.2
     78    4   -41.4659   -57.1346   -15.8608      6   0.00   0.16430  -0.21941  -0.18930  4.6  1.2
     79    5   -39.6005   -59.7282   -14.2593      6   0.00  -0.31411  -0.24324   0.12474  4.6  1.2
     80    6   -41.9479   -59.9248   -10.9176      6   0.00   0.00000   0.00000   0.00000  4.5  0.9
     81    6   -44.1106   -59.9981    -7.8536      6   0.00   0.00000   0.00000   0.00000  4.5  0.9
     82    6   -41.3016   -59.5818    -5.4902      6   0.00   0.00000   0.00000   0.00000  4.5  0.9
     83    6   -42.1943   -58.5259    -2.2119      6   0.00   0.00000   0.00000   0.00000  4.5  0.9
     84    6   -45.0413   -59.3796    -2.2396      6   0.00   0.00000   0.00000   0.00000  4.5  0.9
     85    5   -44.6075   -58.1065   -14.8539      6   0.00   0.07162  -0.37756   0.16034  4.6  1.2
     86    6   -45.8240   -57.8526   -11.9117      6   0.00   0.00000   0.00000   0.00000  4.5  0.9
     87    6   -42.8211   -55.7553    -8.0572      6   0.00   0.00000   0.00000   0.00000  4.5  0.9
     88    6   -39.8036   -54.1898    -7.1550      6   0.00   0.00000   0.00000   0.00000  4.5  0.9
     89    6   -38.6767   -55.7751    -3.2926      6   0.00   0.00000   0.00000   0.00000  4.5  0.9
     90    6   -39.4294   -55.8495     0.6453      6   0.00   0.00000   0.00000   0.00000  4.5  0.9
     91    2   -36.3510   -54.8284    15.1497      7   0.70   0.00000   0.00000   0.00000  4.5  0.9
     92    3   -35.3810   -58.8187    18.8447      7  -0.70   0.00000   0.00000   0.00000  5.2  1.2
     93    4   -33.1338   -60.3211    16.8804      7   0.00  -0.02621  -0.08268  -0.32163  4.6  1.2
     94    5   -35.2578   -60.2468    13.8570      7   0.00  -0.10851   0.40013   0.03883  4.6  1.2
     95    6   -33.9471   -60.1125    10.1664      7   0.00   0.00000   0.00000   0.00000  4.5  0.9
     96    6   -34.2067    61.9271     7.8927      7   0.00   0.00000   0.00000   0.00000  4.5  0.9
     97    6   -35.6258   -60.8777     5.2333      7   0.00   0.00000   0.00000   0.00000  4.5  0.9
     98    6   -37.2744   -57.4713     5.0089      7   0.00   0.00000   0.00000   0.00000  4.5  0.9
     99    6   -37.0122   -52.9373     5.0362      7   0.00   0.00000   0.00000   0.00000  4.5  0.9
    100    5   -30.8853   -60.2390    14.2719      7   0.00  -0.16872  -0.25184  -0.28548  4.6  1.2
    101    6   -32.4239   -56.4934    13.1244      7   0.00   0.00000   0.00000   0.00000  4.5  0.9
    102    6   -33.7990   -54.3564     9.1779      7   0.00   0.00000   0.00000   0.00000  4.5  0.9
    103    6   -32.7376   -55.1204     5.0688      7   0.00   0.00000   0.00000   0.00000  4.5  0.9
    104    6   -33.9421   -57.2921     1.9324      7   0.00   0.00000   0.00000   0.00000  4.5  0.9
    105    6   -32.7653   -60.5201    -0.6618      7   0.00   0.00000   0.00000   0.00000  4.5  0.9
    106    2   -37.2264   -58.5226   -18.7479      8   0.70   0.00000   0.00000   0.00000  4.5  0.9
    107    3   -32.8274   -57.6658   -18.0817      8  -0.70   0.00000   0.00000   0.00000  5.2  1.2
    108    4   -34.1673   -58.5801   -14.9624      8   0.00  -0.15464  -0.00275   0.29504  4.6  1.2
    109    5   -34.1621   -60.3293   -13.3536      8   0.00  -0.21404   0.20322   0.29373  4.6  1.2
    110    6   -33.8397   -60.0021   -10.1302      8   0.00   0.00000   0.00000   0.00000  4.5  0.9
    111    6   -32.4911   -59.3124    -7.3377      8   0.00   0.00000   0.00000   0.00000  4.5  0.9
    112    6   -33.8408   -60.8933    -5.4829      8   0.00   0.00000   0.00000   0.00000  4.5  0.9
    113    6   -36.7928   -60.4171    -3.4517      8   0.00   0.00000   0.00000   0.00000  4.5  0.9
    114    6   -37.2516   -59.6315    -0.1155      8   0.00   0.00000   0.00000   0.00000  4.5  0.9
    115    5   -36.7723   -56.2751   -13.9675      8   0.00  -0.36167  -0.17688   0.10629  4.6  1.2
    116    6   -37.7734   -56.4221   -11.3695      8   0.00   0.00000   0.00000   0.00000  4.5  0.9
    117    6   -37.6763   -58.0481    -8.6390      8   0.00   0.00000   0.00000   0.00000  4.5  0.9
    118    6   -35.2548   -55.6189    -6.3371      8   0.00   0.00000   0.00000   0.00000  4.5  0.9
    119    6   -33.4683   -56.3133    -3.7247      8   0.00   0.00000   0.00000   0.00000  4.5  0.9
    120    6   -30.6894   -56.8562    -3.1907      8   0.00   0.00000   0.00000   0.00000  4.5  0.9
    121    2   -27.4649   -56.2575    20.4956      9   0.70   0.00000   0.00000   0.00000  4.5  0.9
    122    3   -28.1391   -59.4131    18.4541      9  -0.70   0.00000   0.00000   0.00000  5.2  1.2
    123    4   -28.2225   -56.5306    15.9016      9   0.00  -0.13037  -0.11006  -0.28611  4.6  1.2
    124    5   -29.1710   -53.3547    14.8067      9   0.00   0.31934  -0.23800  -0.12152  4.6  1.2
    125    6   -28.9196   -53.2047    11.5855      9   0.00   0.00000   0.00000   0.00000  4.5  0.9
    126    6   -28.8998   -55.4805     9.3191      9   0.00   0.00000   0.00000   0.00000  4.5  0.9
    127    6   -30.1318   -58.7389     8.7431      9   0.00   0.00000   0.00000   0.00000  4.5  0.9
    128    6   -30.6996   -59.5148     5.3798      9   0.00   0.00000   0.00000   0.00000  4.5  0.9
    129    6   -29.4598   -57.2583     1.5042      9   0.00   0.00000   0.00000   0.00000  4.5  0.9
    130    5   -26.9179   -57.4486    13.0282      9   0.00   0.29519  -0.23937  -0.17015  4.6  1.2
    131    6   -26.5857   -59.1733    12.0324      9   0.00   0.00000   0.00000   0.00000  4.5  0.9
    132    6   -25.9114   -60.6115     9.7639      9   0.00   0.00000   0.00000   0.00000  4.5  0.9
    133    6   -25.5419   -58.9303     7.2838      9   0.00   0.00000   0.00000   0.00000  4.5  0.9
    134    6   -26.4893   -57.3241     5.2104      9   0.00   0.00000   0.00000   0.00000  4.5  0.9
    135    6   -26.3624   -60.2908     3.1052      9   0.00   0.00000   0.00000   0.00000  4.5  0.9
    136    2   -25.1276   -55.3590   -18.8291     10   0.70   0.00000   0.00000   0.00000  4.5  0.9
    137    3   -25.5288   -60.5147   -18.0167     10  -0.70   0.00000   0.00000   0.00000  5.2  1.2
    138    4   -27.9298   -58.7074   -15.9407     10   0.00  -0.26995  -0.02050  -0.19410  4.6  1.2
    139    5   -29.3549   -61.6345   -12.9764     10   0.00  -0.15821   0.22594   0.31195  4.6  1.2
    140    6   -31.4828    59.5002   -12.0017     10   0.00   0.00000   0.00000   0.00000  4.5  0.9
    141    6   -31.6472    59.7627    -9.2821     10   0.00   0.00000   0.00000   0.00000  4.5  0.9
    142    6   -28.9930    61.8688    -8.1548     10   0.00   0.00000   0.00000   0.00000  4.5  0.9
    143    6   -28.7978    61.9328    -5.5179     10   0.00   0.00000   0.00000   0.00000  4.5  0.9
    144    6   -28.5069   -61.2847    -1.9075     10   0.00   0.00000   0.00000   0.00000  4.5  0.9
    145    5   -27.1372   -57.3340   -13.8167     10   0.00   0.30356   0.17511   0.22490  4.6  1.2
    146    6   -28.7941   -57.8506    -9.9956     10   0.00   0.00000   0.00000   0.00000  4.5  0.9
    147    6   -26.7823   -57.7335    -7.7797     10   0.00   0.00000   0.00000   0.00000  4.5  0.9
    148    6   -26.5420   -58.0363    -4.8146     10   0.00   0.00000   0.00000   0.00000  4.5  0.9
    149    6   -25.3689   -57.7083    -1.9531     10   0.00   0.00000   0.00000   0.00000  4.5  0.9
    150    6   -23.7500   -57.9796     0.0883     10   0.00   0.00000   0.00000   0.00000  4.5  0.9
    151    2   -20.5000   -60.9681    19.2825     11   0.70   0.00000   0.00000   0.00000  4.5  0.9
    152    3   -19.9913   -56.0188    20.5115     11  -0.70   0.00000   0.00000   0.00000  5.2  1.2
    153    4   -20.7496   -56.4097    18.0632     11   0.00   0.03563   0.33068   0.01878  4.6  1.2
    154    5   -23.2541   -57.5102    16.6573     11   0.00  -0.18710   0.36977   0.04067  4.6  1.2
    155    6   -22.1507   -57.6774    13.1253     11   0.00   0.00000   0.00000   0.00000  4.5  0.9
    156    6   -21.3972   -58.1709     9.5741     11   0.00   0.00000   0.00000   0.00000  4.5  0.9
    157    6   -21.1067   -57.4853     6.8273     11   0.00   0.00000   0.00000   0.00000  4.5  0.9
    158    6   -21.4930   -59.2502     4.5581     11   0.00   0.00000   0.00000   0.00000  4.5  0.9
    159    6   -21.2841   -61.4581     1.8721     11   0.00   0.00000   0.00000   0.00000  4.5  0.9
    160    5   -18.2938   -58.0852    15.7347     11   0.00  -0.09220  -0.39148  -0.10786  4.6  1.2
    161    6   -18.1705   -60.3821    12.8514     11   0.00   0.00000   0.00000   0.00000  4.5  0.9
    162    6   -17.4337   -56.5847    11.2510     11   0.00   0.00000   0.00000   0.00000  4.5  0.9
    163    6   -16.8528   -55.5381     8.8139     11   0.00   0.00000   0.00000   0.00000  4.5  0.9
    164    6   -16.1605   -56.3880     5.2975     11   0.00   0.00000   0.00000   0.00000  4.5  0.9
    165    6   -17.8178   -57.9350     2.4618     11   0.00   0.00000   0.00000   0.00000  4.5  0.9
    166    2   -17.9261   -60.3320   -19.9866     12   0.70   0.00000   0.00000   0.00000  4.5  0.9
    167    3   -20.1831   -58.6288   -19.3765     12  -0.70   0.00000   0.00000   0.00000  5.2  1.2
    168    4   -19.9499   -57.8045   -16.8132     12   0.00  -0.29561  -0.14779   0.04174  4.6  1.2
    169    5   -17.5207   -60.2171   -15.0367     12   0.00   0.02255   0.15056   0.38757  4.6  1.2
    170    6   -17.1063   -60.2147   -12.3404     12   0.00   0.00000   0.00000   0.00000  4.5  0.9
    171    6   -19.9139   -60.1314    -9.5069     12   0.00   0.00000   0.00000   0.00000  4.5  0.9
    172    6   -17.4409   -58.9178    -7.0082     12   0.00   0.00000   0.00000   0.00000  4.5  0.9
    173    6   -15.8526   -60.2102    -3.8937     12   0.00   0.00000   0.00000   0.00000  4.5  0.9
    174    6   -15.5233   -60.8787    -0.5737     12   0.00   0.00000   0.00000   0.00000  4.5  0.9
    175    5   -22.2743   -57.7160   -14.3933     12   0.00   0.11774   0.21290  -0.33793  4.6  1.2
    176    6   -20.8791   -56.4851   -12.2607     12   0.00   0.00000   0.00000   0.00000  4.5  0.9
    177    6   -19.0160   -55.7481   -10.1234     12   0.00   0.00000   0.00000   0.00000  4.5  0.9
    178    6   -21.8431   -56.2202    -7.9426     12   0.00   0.00000   0.00000   0.00000  4.5  0.9
    179    6   -21.4828   -57.8817    -4.9799     12   0.00   0.00000   0.00000   0.00000  4.5  0.9
    180    6   -19.4937   -58.0632    -1.8060     12   0.00   0.00000   0.00000   0.00000  4.5  0.9
    181    2   -15.4725   -55.1482    18.3167     13   0.70   0.00000   0.00000   0.00000  4.5  0.9
    182    3   -10.6971   -58.0821    20.7727     13  -0.70   0.00000   0.00000   0.00000  5.2  1.2
    183    4    -9.1251   -57.3868    17.6489     13   0.00   0.22837  -0.11767   0.21206  4.6  1.2
    184    5   -12.6572   -57.7688    15.4853     13   0.00   0.14377  -0.15074  -0.36055  4.6  1.2
    185    6   -13.6489   -58.5440    13.3966     13   0.00   0.00000   0.00000   0.00000  4.5  0.9
    186    6   -14.3399   -59.8892     9.8405     13   0.00   0.00000   0.00000   0.00000  4.5  0.9
    187    6   -13.1349   -59.9190     5.5946     13   0.00   0.00000   0.00000   0.00000  4.5  0.9
    188    6   -11.7173   -56.7433     3.6575     13   0.00   0.00000   0.00000   0.00000  4.5  0.9
    189    6   -13.4765   -57.0653     0.7038     13   0.00   0.00000   0.00000   0.00000  4.5  0.9
    190    5    -8.8599   -56.3253    13.5485     13   0.00   0.32495   0.19694   0.17033  4.6  1.2
    191    6    -9.6178   -59.0271    11.5678     13   0.00   0.00000   0.00000   0.00000  4.5  0.9
    192    6    -9.2993   -59.1304     8.0399     13   0.00   0.00000   0.00000   0.00000  4.5  0.9
    193    6    -8.2519   -60.6010     4.9105     13   0.00   0.00000   0.00000   0.00000  4.5  0.9
    194    6    -8.3717   -59.4276     1.1914     13   0.00   0.00000   0.00000   0.00000  4.5  0.9
    195    6    -8.5442   -56.0606     0.2327     13   0.00   0.00000   0.00000   0.00000  4.5  0.9
    196    2    -8.9872   -61.1983   -18.5005     14   0.70   0.00000   0.00000   0.00000  4.5  0.9
    197    3   -13.5396   -58.4984   -19.0157     14  -0.70   0.00000   0.00000   0.00000  5.2  1.2
    198    4   -13.8499   -57.6182   -16.8298     14   0.00  -0.03890  -0.28285  -0.17161  4.6  1.2
    199    5   -11.9239   -59.6549   -14.2186     14   0.00  -0.30095   0.03638   0.28547  4.6  1.2
    200    6   -11.3813   -61.1836   -11.5439     14   0.00   0.00000   0.00000   0.00000  4.5  0.9
    201    6   -13.1800   -61.6133    -9.2119     14   0.00   0.00000   0.00000   0.00000  4.5  0.9
    202    6   -12.3736   -60.1747    -6.6801     14   0.00   0.00000   0.00000   0.00000  4.5  0.9
    203    6   -11.3187   -59.7320    -3.5652     14   0.00   0.00000   0.00000   0.00000  4.5  0.9
    204    6    -8.4397   -59.5921    -3.4803     14   0.00   0.00000   0.00000   0.00000  4.5  0.9
    205    5   -15.2783   -56.3202   -14.0082     14   0.00   0.20971  -0.07283   0.35229  4.6  1.2
    206    6   -13.8330   -56.8380   -10.8331     14   0.00   0.00000   0.00000   0.00000  4.5  0.9
    207    6    -9.5984   -56.9533    -9.8293     14   0.00   0.00000   0.00000   0.00000  4.5  0.9
    208    6    -9.7389   -56.4710    -7.1241     14   0.00   0.00000   0.00000   0.00000  4.5  0.9
    209    6   -11.6700   -55.5746    -5.1585     14   0.00   0.00000   0.00000   0.00000  4.5  0.9
    210    6   -15.0134   -55.5946    -3.7873     14   0.00   0.00000   0.00000   0.00000  4.5  0.9
    211    2    -5.7989   -60.2133    19.7877     15   0.70   0.00000   0.00000   0.00000  4.5  0.9
    212    3    -1.6997   -57.4736    18.6934     15  -0.70   0.00000   0.00000   0.00000  5.2  1.2
    213    4    -4.5389   -56.0173    16.3327     15   0.00   0.28851   0.09452   0.13709  4.6  1.2
    214    5    -5.1891   -58.9792    14.0661     15   0.00   0.33498   0.22235  -0.10834  4.6  1.2
    215    6    -5.5242   -57.6618    10.4167     15   0.00   0.00000   0.00000   0.00000  4.5  0.9
    216    6    -7.1404   -54.7878     8.2944     15   0.00   0.00000   0.00000   0.00000  4.5  0.9
    217    6    -6.9154   -55.5220     4.7140     15   0.00   0.00000   0.00000   0.00000  4.5  0.9
    218    6    -4.6164   -57.7127     2.8197     15   0.00   0.00000   0.00000   0.00000  4.5  0.9
    219    6    -2.3268   -60.3527     2.3254     15   0.00   0.00000   0.00000   0.00000  4.5  0.9
    220    5    -2.6383   -55.0228    13.4852     15   0.00   0.00027  -0.41136  -0.06458  4.6  1.2
    221    6    -1.1348   -58.1465    11.8722     15   0.00   0.00000   0.00000   0.00000  4.5  0.9
    222    6    -1.8659   -60.1727     9.0559     15   0.00   0.00000   0.00000   0.00000  4.5  0.9
    223    6    -2.1989   -57.3462     6.9218     15   0.00   0.00000   0.00000   0.00000  4.5  0.9
    224    6    -1.4096   -54.4339     4.6203     15   0.00   0.00000   0.00000   0.00000  4.5  0.9
    225    6    -0.5586   -55.4840     1.1057     15   0.00   0.00000   0.00000   0.00000  4.5  0.9
    226    2    -0.4392   -61.7875   -17.8919     16   0.70   0.00000   0.00000   0.00000  4.5  0.9
    227    3    -4.5095   -58.7328   -18.7845     16  -0.70   0.00000   0.00000   0.00000  5.2  1.2
    228    4    -4.0312   -55.9333   -16.5811     16   0.00  -0.26395  -0.01446  -0.20271  4.6  1.2
    229    5    -6.4652   -56.7382   -14.6677     16   0.00  -0.17361  -0.35787  -0.12320  4.6  1.2
    230    6    -4.4531   -59.9853   -13.6304     16   0.00   0.00000   0.00000   0.00000  4.5  0.9
    231    6    -1.9663   -60.8789   -10.3871     16   0.00   0.00000   0.00000   0.00000  4.5  0.9
    232    6    -1.1234   -59.3194    -7.4268     16   0.00   0.00000   0.00000   0.00000  4.5  0.9
    233    6    -0.7113   -58.0127    -4.3697     16   0.00   0.00000   0.00000   0.00000  4.5  0.9
    234    6    -3.5079   -58.6475    -1.7722     16   0.00   0.00000   0.00000   0.00000  4.5  0.9
    235    5    -2.1109   -55.1922   -14.0647     16   0.00  -0.13350  -0.30125   0.25459  4.6  1.2
    236    6    -2.4741   -55.9796   -11.1114     16   0.00   0.00000   0.00000   0.00000  4.5  0.9
    237    6    -4.8829   -57.5687    -9.5182     16   0.00   0.00000   0.00000   0.00000  4.5  0.9
    238    6    -5.1101   -57.0234    -6.0279     16   0.00   0.00000   0.00000   0.00000  4.5  0.9
    239    6    -6.5186   -54.7187    -3.7556     16   0.00   0.00000   0.00000   0.00000  4.5  0.9
    240    6    -4.3012   -53.3516    -0.4904     16   0.00   0.00000   0.00000   0.00000  4.5  0.9
    241    2     3.7781   -55.9521    18.1650     17   0.70   0.00000   0.00000   0.00000  4.5  0.9
    242    3     5.2599   -61.1554    18.6258     17  -0.70   0.00000   0.00000   0.00000  5.2  1.2
    243    4     6.3458   -60.6478    16.1141     17   0.00   0.31725  -0.10012  -0.01734  4.6  1.2
    244    5     3.2712   -59.5346    14.3063     17   0.00  -0.20982   0.35480   0.05900  4.6  1.2
    245    6     2.5562   -56.2930    14.0365     17   0.00   0.00000   0.00000   0.00000  4.5  0.9
    246    6     2.1107   -55.7822     9.7871     17   0.00   0.00000   0.00000   0.00000  4.5  0.9
    247    6     2.5750   -59.3798     7.5040     17   0.00   0.00000   0.00000   0.00000  4.5  0.9
    248    6     1.6746   -58.9227     4.4884     17   0.00   0.00000   0.00000   0.00000  4.5  0.9
    249    6     3.3561   -55.8295     3.4533     17   0.00   0.00000   0.00000   0.00000  4.5  0.9
    250    5     7.4172   -56.6561    14.0907     17   0.00   0.29754  -0.29095  -0.01439  4.6  1.2
    251    6     6.1013   -57.9940    10.8525     17   0.00   0.00000   0.00000   0.00000  4.5  0.9
    252    6     6.1143    61.8374     9.4032     17   0.00   0.00000   0.00000   0.00000  4.5  0.9
    253    6     8.5619   -61.1742     7.5792     17   0.00   0.00000   0.00000   0.00000  4.5  0.9
    254    6     7.2924   -59.0235     5.1292     17   0.00   0.00000   0.00000   0.00000  4.5  0.9
    255    6     5.7822   -60.1925     2.4413     17   0.00   0.00000   0.00000   0.00000  4.5  0.9
    256    2     7.4942   -57.8705   -17.9067     18   0.70   0.00000   0.00000   0.00000  4.5  0.9
    257    3     2.4756   -58.2084   -19.3205     18  -0.70   0.00000   0.00000   0.00000  5.2  1.2
    258    4     2.8306   -58.8493   -15.9510     18   0.00  -0.33182   0.02225  -0.01918  4.6  1.2
    259    5     5.7225   -61.6681   -15.5141     18   0.00  -0.09908   0.04182   0.40227  4.6  1.2
    260    6     5.7210   -61.0420   -12.0725     18   0.00   0.00000   0.00000   0.00000  4.5  0.9
    261    6     2.7265   -59.1355   -10.6622     18   0.00   0.00000   0.00000   0.00000  4.5  0.9
    262    6     3.5548   -59.2923    -7.2535     18   0.00   0.00000   0.00000   0.00000  4.5  0.9
    263    6     2.7791   -60.8297    -4.3614     18   0.00   0.00000   0.00000   0.00000  4.5  0.9
    264    6     1.4397   -59.7323    -0.5187     18   0.00   0.00000   0.00000   0.00000  4.5  0.9
    265    5     4.0670   -56.6639   -14.5512     18   0.00   0.16543   0.32169  -0.20624  4.6  1.2
    266    6     6.4636   -55.9057   -11.9970     18   0.00   0.00000   0.00000   0.00000  4.5  0.9
    267    6     6.9396   -56.2178    -8.9700     18   0.00   0.00000   0.00000   0.00000  4.5  0.9
    268    6     5.8609   -55.2105    -6.0055     18   0.00   0.00000   0.00000   0.00000  4.5  0.9
    269    6     3.5941   -56.2399    -3.1570     18   0.00   0.00000   0.00000   0.00000  4.5  0.9
    270    6     5.0287   -56.7291    -0.7902     18   0.00   0.00000   0.00000   0.00000  4.5  0.9
    271    2    12.2765   -60.3873    19.5478     19   0.70   0.00000   0.00000   0.00000  4.5  0.9
    272    3     8.9627   -57.0031    18.6462     19  -0.70   0.00000   0.00000   0.00000  5.2  1.2
    273    4    12.2650   -57.0667    15.8572     19   0.00   0.17452  -0.18516   0.21500  4.6  1.2
    274    5    11.2761   -61.0253    14.6297     19   0.00   0.29515   0.16425  -0.24351  4.6  1.2
    275    6     9.8758   -61.3136    12.3602     19   0.00   0.00000   0.00000   0.00000  4.5  0.9
    276    6    10.8884   -57.5666    11.0895     19   0.00   0.00000   0.00000   0.00000  4.5  0.9
    277    6    12.0780   -56.6286     7.7127     19   0.00   0.00000   0.00000   0.00000  4.5  0.9
    278    6    11.4366   -55.9910     4.1714     19   0.00   0.00000   0.00000   0.00000  4.5  0.9
    279    6     9.5687   -57.7194     1.0922     19   0.00   0.00000   0.00000   0.00000  4.5  0.9
    280    5    15.8569   -59.8188    15.6009     19   0.00   0.11059  -0.19691  -0.34984  4.6  1.2
    281    6    14.9770   -60.6204    11.7724     19   0.00   0.00000   0.00000   0.00000  4.5  0.9
    282    6    13.2181   -61.4415     9.4817     19   0.00   0.00000   0.00000   0.00000  4.5  0.9
    283    6    13.1876    61.3661     6.4645     19   0.00   0.00000   0.00000   0.00000  4.5  0.9
    284    6    13.1998   -60.7812     3.5829     19   0.00   0.00000   0.00000   0.00000  4.5  0.9
    285    6    13.2962   -60.5686    -0.0561     19   0.00   0.00000   0.00000   0.00000  4.5  0.9
    286    2    10.9806   -58.0328   -21.9211     20   0.70   0.00000   0.00000   0.00000  4.5  0.9
    287    3    12.1750   -60.4201   -19.1082     20  -0.70   0.00000   0.00000   0.00000  5.2  1.2
    288    4    11.5511   -59.1234   -15.9516     20   0.00  -0.07507  -0.13873   0.29340  4.6  1.2
    289    5    10.0447   -59.8344   -13.6528     20   0.00   0.09810  -0.40384   0.02609  4.6  1.2
    290    6    10.1133   -59.5773    -9.7120     20   0.00   0.00000   0.00000   0.00000  4.5  0.9
    291    6    13.1494   -59.2068    -8.3190     20   0.00   0.00000   0.00000   0.00000  4.5  0.9
    292    6    12.9582   -60.4276    -5.4261     20   0.00   0.00000   0.00000   0.00000  4.5  0.9
    293    6    10.6200   -61.2144    -4.3723     20   0.00   0.00000   0.00000   0.00000  4.5  0.9
    294    6     7.5908   -59.3388    -4.6455     20   0.00   0.00000   0.00000   0.00000  4.5  0.9
    295    5    11.9827   -55.4934   -15.5701     20   0.00   0.31528  -0.27156   0.01560  4.6  1.2
    296    6    11.4520   -55.3772   -11.6984     20   0.00   0.00000   0.00000   0.00000  4.5  0.9