LAMMPS 'data.' input file - made with Brahms (http://code.google.com/p/brahms-md)

    24576 atoms
    14336 bonds
    16384 angles

        6 atom types
        5 bond types
        5 angle types

          -62           62      xlo xhi
          -62           62      ylo yhi
          -25           75      zlo zhi

Atoms

      1    2   -56.3815   -55.6828    19.8329      1   0.70   0.00000   0.00000   0.00000  4.5  0.9
      2    3   -56.7235   -58.9851    19.3808      1  -0.70   0.00000   0.00000   0.00000  5.2  1.2
      3    4   -58.2437   -59.3323    16.6808      1   0.00   0.31664   0.05707   0.08630  4.6  1.2
      4    5   -59.8513   -61.8750    14.9188      1   0.00  -0.22188   0.06136  -0.34698  4.6  1.2
      5    6   -59.6862    60.9535    12.2593      1   0.00   0.00000   0.00000   0.00000  4.5  0.9
      6    6   -59.3755    60.4114     9.6254      1   0.00   0.00000   0.00000   0.00000  4.5  0.9
      7    6   -60.0415    60.6251     7.0048      1   0.00   0.00000   0.00000   0.00000  4.5  0.9
      8    6   -61.4099    60.8030     4.5449      1   0.00   0.00000   0.00000   0.00000  4.5  0.9
      9    6   -61.7352   -61.6134     2.1528      1   0.00   0.00000   0.00000   0.00000  4.5  0.9
     10    5   -58.2751   -56.9751    14.6951      1   0.00   0.09497  -0.16653  -0.36964  4.6  1.2
     11    6   -58.9117   -56.6099    11.9486      1   0.00   0.00000   0.00000   0.00000  4.5  0.9
     12    6   -59.6490   -57.8803     9.5728      1   0.00   0.00000   0.00000   0.00000  4.5  0.9
     13    6   -58.2158   -58.5440     7.3311      1   0.00   0.00000   0.00000   0.00000  4.5  0.9
     14    6   -57.0035   -59.4335     4.9411      1   0.00   0.00000   0.00000   0.00000  4.5  0.9
     15    6   -56.5131   -60.5208     2.3417      1   0.00   0.00000   0.00000   0.00000  4.5  0.9
     16    2   -61.1604   -57.3995   -20.4753      2   0.70   0.00000   0.00000   0.00000  4.5  0.9
     17    3   -59.2385   -60.2889   -20.2564      2  -0.70   0.00000   0.00000   0.00000  5.2  1.2
     18    4   -57.9810   -59.9869   -17.4395      2   0.00  -0.17913   0.02931  -0.27933  4.6  1.2
     19    5   -55.6212   -61.4486   -15.9878      2   0.00  -0.14585   0.21917   0.32262  4.6  1.2
     20    6   -55.0620   -61.2399   -13.2015      2   0.00   0.00000   0.00000   0.00000  4.5  0.9
     21    6   -56.3007   -61.6823   -10.6679      2   0.00   0.00000   0.00000   0.00000  4.5  0.9
     22    6   -55.8599   -60.4270    -7.9251      2   0.00   0.00000   0.00000   0.00000  4.5  0.9
     23    6   -55.9094   -60.1717    -4.9535      2   0.00   0.00000   0.00000   0.00000  4.5  0.9
     24    6   -54.4570   -60.3010    -2.5307      2   0.00   0.00000   0.00000   0.00000  4.5  0.9
     25    5   -59.2719   -57.9338   -15.3011      2   0.00   0.11495   0.25650   0.30722  4.6  1.2
     26    6   -59.3552   -56.9884   -12.7076      2   0.00   0.00000   0.00000   0.00000  4.5  0.9
     27    6   -58.7110   -57.3658   -10.0418      2   0.00   0.00000   0.00000   0.00000  4.5  0.9
     28    6   -60.4035   -57.6175    -7.9361      2   0.00   0.00000   0.00000   0.00000  4.5  0.9
     29    6   -60.3514   -57.3541    -5.1670      2   0.00   0.00000   0.00000   0.00000  4.5  0.9
     30    6   -59.7450   -57.6737    -2.3730      2   0.00   0.00000   0.00000   0.00000  4.5  0.9
     31    2   -51.9289   -60.5798    19.8012      3   0.70   0.00000   0.00000   0.00000  4.5  0.9
     32    3   -49.6837   -58.2991    20.0615      3  -0.70   0.00000   0.00000   0.00000  5.2  1.2
     33    4   -49.8223   -56.6737    17.1954      3   0.00   0.14723   0.01191   0.29858  4.6  1.2
     34    5   -52.4519   -56.9817    15.4104      3   0.00   0.13756   0.12617  -0.37222  4.6  1.2
     35    6   -53.2526   -57.1434    12.7709      3   0.00   0.00000   0.00000   0.00000  4.5  0.9
     36    6   -54.2836   -57.4199    10.2535      3   0.00   0.00000   0.00000   0.00000  4.5  0.9
     37    6   -53.5909   -56.6778     7.7769      3   0.00   0.00000   0.00000   0.00000  4.5  0.9
     38    6   -52.7021   -57.0037     5.0503      3   0.00   0.00000   0.00000   0.00000  4.5  0.9
     39    6   -52.5368   -57.6660     2.0633      3   0.00   0.00000   0.00000   0.00000  4.5  0.9
     40    5   -47.4167   -56.7142    15.1112      3   0.00  -0.08990  -0.20195  -0.35288  4.6  1.2
     41    6   -47.4812   -56.1280    12.4433      3   0.00   0.00000   0.00000   0.00000  4.5  0.9
     42    6   -48.9527   -55.5109    10.3340      3   0.00   0.00000   0.00000   0.00000  4.5  0.9
     43    6   -49.1041   -54.3980     7.7304      3   0.00   0.00000   0.00000   0.00000  4.5  0.9
     44    6   -49.6015   -53.3288     5.0755      3   0.00   0.00000   0.00000   0.00000  4.5  0.9
     45    6   -49.9294   -53.3087     2.2274      3   0.00   0.00000   0.00000   0.00000  4.5  0.9
     46    2   -50.3577    61.6393   -19.1088      4   0.70   0.00000   0.00000   0.00000  4.5  0.9
     47    3   -48.4166   -59.6809   -19.6808      4  -0.70   0.00000   0.00000   0.00000  5.2  1.2
     48    4   -49.1888   -58.0084   -17.0700      4   0.00   0.01412   0.05832  -0.32767  4.6  1.2
     49    5   -49.6185   -59.6581   -14.3554      4   0.00  -0.33022   0.10130   0.23256  4.6  1.2
     50    6   -49.9229   -60.8100   -11.9019      4   0.00   0.00000   0.00000   0.00000  4.5  0.9
     51    6   -50.1528   -61.2167    -9.1318      4   0.00   0.00000   0.00000   0.00000  4.5  0.9
     52    6   -48.6978   -60.2031    -7.0577      4   0.00   0.00000   0.00000   0.00000  4.5  0.9
     53    6   -47.7279   -59.1920    -4.5238      4   0.00   0.00000   0.00000   0.00000  4.5  0.9
     54    6   -48.6270   -58.9541    -1.5810      4   0.00   0.00000   0.00000   0.00000  4.5  0.9
     55    5   -51.7938   -55.7140   -16.5619      4   0.00   0.12615   0.35107   0.18501  4.6  1.2
     56    6   -53.2729   -55.4295   -14.0324      4   0.00   0.00000   0.00000   0.00000  4.5  0.9
     57    6   -53.5384   -56.8828   -11.6398      4   0.00   0.00000   0.00000   0.00000  4.5  0.9
     58    6   -51.9988   -56.1936    -9.5202      4   0.00   0.00000   0.00000   0.00000  4.5  0.9
     59    6   -51.4202   -55.8435    -6.9862      4   0.00   0.00000   0.00000   0.00000  4.5  0.9
     60    6   -52.3496   -56.2151    -4.3230      4   0.00   0.00000   0.00000   0.00000  4.5  0.9
     61    2   -44.2606   -57.6922    19.2400      5   0.70   0.00000   0.00000   0.00000  4.5  0.9
     62    3   -40.8888   -57.0973    18.8332      5  -0.70   0.00000   0.00000   0.00000  5.2  1.2
     63    4   -40.3894   -58.3940    16.2095      5   0.00   0.13232   0.23486   0.19570  4.6  1.2
     64    5   -42.7024   -59.4322    14.2155      5   0.00   0.02798   0.13233  -0.39382  4.6  1.2
     65    6   -44.1644   -60.2438    11.6636      5   0.00   0.00000   0.00000   0.00000  4.5  0.9
     66    6   -45.5135   -59.6826     9.3946      5   0.00   0.00000   0.00000   0.00000  4.5  0.9
     67    6   -45.3868   -58.0589     7.1768      5   0.00   0.00000   0.00000   0.00000  4.5  0.9
     68    6   -45.9009   -56.7601     4.6529      5   0.00   0.00000   0.00000   0.00000  4.5  0.9
     69    6   -45.6588   -55.9174     1.9119      5   0.00   0.00000   0.00000   0.00000  4.5  0.9
     70    5   -37.9582   -58.1470    13.9110      5   0.00  -0.17519  -0.25892  -0.27505  4.6  1.2
     71    6   -38.3407   -58.6732    10.9754      5   0.00   0.00000   0.00000   0.00000  4.5  0.9
     72    6   -39.9738   -59.3113     8.7869      5   0.00   0.00000   0.00000   0.00000  4.5  0.9
     73    6   -40.5339   -57.7690     6.4831      5   0.00   0.00000   0.00000   0.00000  4.5  0.9
     74    6   -41.0781   -58.3784     3.6911      5   0.00   0.00000   0.00000   0.00000  4.5  0.9
     75    6   -40.0522   -58.3160     1.0531      5   0.00   0.00000   0.00000   0.00000  4.5  0.9
     76    2   -43.9883   -58.1584   -19.9379      6   0.70   0.00000   0.00000   0.00000  4.5  0.9
     77    3   -41.5205   -56.3782   -18.8655      6  -0.70   0.00000   0.00000   0.00000  5.2  1.2
     78    4   -42.1778   -56.8279   -15.6513      6   0.00   0.10481  -0.16499  -0.26975  4.6  1.2
     79    5   -40.9360   -58.9636   -13.4835      6   0.00  -0.27526  -0.28555   0.12680  4.6  1.2
     80    6   -40.4240   -60.6098   -11.2907      6   0.00   0.00000   0.00000   0.00000  4.5  0.9
     81    6   -40.5976   -61.3989    -8.6824      6   0.00   0.00000   0.00000   0.00000  4.5  0.9
     82    6   -40.7179   -60.2788    -6.1077      6   0.00   0.00000   0.00000   0.00000  4.5  0.9
     83    6   -41.4239   -59.0623    -3.7073      6   0.00   0.00000   0.00000   0.00000  4.5  0.9
     84    6   -43.7031   -58.8302    -1.9149      6   0.00   0.00000   0.00000   0.00000  4.5  0.9
     85    5   -45.0262   -56.1287   -14.1940      6   0.00  -0.03007  -0.34068   0.23753  4.6  1.2
     86    6   -46.0332   -57.0522   -11.7198      6   0.00   0.00000   0.00000   0.00000  4.5  0.9
     87    6   -44.8130   -58.0538    -9.3039      6   0.00   0.00000   0.00000   0.00000  4.5  0.9
     88    6   -42.8603   -56.2574    -7.8552      6   0.00   0.00000   0.00000   0.00000  4.5  0.9
     89    6   -41.3359   -54.6971    -5.8419      6   0.00   0.00000   0.00000   0.00000  4.5  0.9
     90    6   -39.1502   -54.4630    -3.8976      6   0.00   0.00000   0.00000   0.00000  4.5  0.9
     91    2   -33.4621   -56.3037    17.7614      7   0.70   0.00000   0.00000   0.00000  4.5  0.9
     92    3   -34.1627   -59.5433    18.4166      7  -0.70   0.00000   0.00000   0.00000  5.2  1.2
     93    4   -33.3686   -60.6664    15.6709      7   0.00  -0.29029   0.14759   0.07013  4.6  1.2
     94    5   -34.9360    61.0656    14.2863      7   0.00  -0.09844   0.26110  -0.30907  4.6  1.2
     95    6   -35.1725    60.3853    11.3817      7   0.00   0.00000   0.00000   0.00000  4.5  0.9
     96    6   -34.5125    61.2760     8.7764      7   0.00   0.00000   0.00000   0.00000  4.5  0.9
     97    6   -35.3750   -60.4308     7.0475      7   0.00   0.00000   0.00000   0.00000  4.5  0.9
     98    6   -35.1995   -57.9356     5.5527      7   0.00   0.00000   0.00000   0.00000  4.5  0.9
     99    6   -36.5466   -55.4933     4.7344      7   0.00   0.00000   0.00000   0.00000  4.5  0.9
    100    5   -32.4899   -58.7633    12.8603      7   0.00  -0.26978  -0.00231  -0.31718  4.6  1.2
    101    6   -33.3554   -56.7116    10.6291      7   0.00   0.00000   0.00000   0.00000  4.5  0.9
    102    6   -33.4820   -54.1137     8.9669      7   0.00   0.00000   0.00000   0.00000  4.5  0.9
    103    6   -32.3209   -53.3503     6.5650      7   0.00   0.00000   0.00000   0.00000  4.5  0.9
    104    6   -32.3009   -53.7296     3.8155      7   0.00   0.00000   0.00000   0.00000  4.5  0.9
    105    6   -32.8533   -54.8584     1.3255      7   0.00   0.00000   0.00000   0.00000  4.5  0.9
    106    2   -37.3805   -58.5700   -19.5480      8   0.70   0.00000   0.00000   0.00000  4.5  0.9
    107    3   -34.7895   -57.5555   -18.1648      8  -0.70   0.00000   0.00000   0.00000  5.2  1.2
    108    4   -35.7258   -57.4747   -15.1812      8   0.00  -0.31415  -0.00044   0.11080  4.6  1.2
    109    5   -35.2211   -59.6919   -13.0495      8   0.00  -0.01196   0.23063   0.34649  4.6  1.2
    110    6   -35.2403   -60.5565   -10.4500      8   0.00   0.00000   0.00000   0.00000  4.5  0.9
    111    6   -34.9288   -61.6745    -8.1710      8   0.00   0.00000   0.00000   0.00000  4.5  0.9
    112    6   -36.0933   -61.7176    -5.5639      8   0.00   0.00000   0.00000   0.00000  4.5  0.9
    113    6   -36.5924   -60.3857    -3.2427      8   0.00   0.00000   0.00000   0.00000  4.5  0.9
    114    6   -35.4543   -58.4557    -1.3937      8   0.00   0.00000   0.00000   0.00000  4.5  0.9
    115    5   -37.0486   -55.1464   -13.5577      8   0.00  -0.38190   0.06693   0.15187  4.6  1.2
    116    6   -38.1101   -55.4267   -10.9634      8   0.00   0.00000   0.00000   0.00000  4.5  0.9
    117    6   -37.7620   -56.5616    -8.4237      8   0.00   0.00000   0.00000   0.00000  4.5  0.9
    118    6   -35.6255   -56.7459    -6.8265      8   0.00   0.00000   0.00000   0.00000  4.5  0.9
    119    6   -33.1447   -57.5536    -6.1270      8   0.00   0.00000   0.00000   0.00000  4.5  0.9
    120    6   -31.3164   -57.4591    -4.1045      8   0.00   0.00000   0.00000   0.00000  4.5  0.9
    121    2   -27.1188   -55.9836    21.0815      9   0.70   0.00000   0.00000   0.00000  4.5  0.9
    122    3   -29.0443   -57.8443    19.7024      9  -0.70   0.00000   0.00000   0.00000  5.2  1.2
    123    4   -28.3021   -57.6196    16.5903      9   0.00  -0.16770  -0.26605   0.10984  4.6  1.2
    124    5   -28.9367   -54.9989    14.6194      9   0.00   0.10213  -0.25619  -0.31197  4.6  1.2
    125    6   -28.8661   -54.1887    11.8502      9   0.00   0.00000   0.00000   0.00000  4.5  0.9
    126    6   -28.7494   -55.5555     9.2720      9   0.00   0.00000   0.00000   0.00000  4.5  0.9
    127    6   -29.7019   -57.2756     7.1957      9   0.00   0.00000   0.00000   0.00000  4.5  0.9
    128    6   -29.7955   -58.0008     4.5198      9   0.00   0.00000   0.00000   0.00000  4.5  0.9
    129    6   -28.3518   -56.7799     2.3389      9   0.00   0.00000   0.00000   0.00000  4.5  0.9
    130    5   -26.8404   -59.8624    15.1551      9   0.00  -0.12289  -0.39785   0.00081  4.6  1.2
    131    6   -26.2903   -60.6234    12.3183      9   0.00   0.00000   0.00000   0.00000  4.5  0.9
    132    6   -27.0502   -60.4174     9.4631      9   0.00   0.00000   0.00000   0.00000  4.5  0.9
    133    6   -25.6787   -60.2972     6.7800      9   0.00   0.00000   0.00000   0.00000  4.5  0.9
    134    6   -25.5498   -60.9303     3.8878      9   0.00   0.00000   0.00000   0.00000  4.5  0.9
    135    6   -25.8089    61.5905     1.2189      9   0.00   0.00000   0.00000   0.00000  4.5  0.9
    136    2   -24.7205   -56.3904   -17.8320     10   0.70   0.00000   0.00000   0.00000  4.5  0.9
    137    3   -26.1794   -59.4617   -18.2326     10  -0.70   0.00000   0.00000   0.00000  5.2  1.2
    138    4   -27.8858   -59.2350   -15.3952     10   0.00   0.00625  -0.09306  -0.31980  4.6  1.2
    139    5   -30.3128   -60.8436   -13.9791     10   0.00  -0.25671  -0.06999   0.32030  4.6  1.2
    140    6   -30.4689   -61.6031   -11.1382     10   0.00   0.00000   0.00000   0.00000  4.5  0.9
    141    6   -29.9110    61.1535    -8.5500     10   0.00   0.00000   0.00000   0.00000  4.5  0.9
    142    6   -30.7323    61.4599    -5.8401     10   0.00   0.00000   0.00000   0.00000  4.5  0.9
    143    6   -30.8231    61.6505    -3.0201     10   0.00   0.00000   0.00000   0.00000  4.5  0.9
    144    6   -30.0984   -60.7544    -0.6941     10   0.00   0.00000   0.00000   0.00000  4.5  0.9
    145    5   -26.7598   -57.2290   -13.0128     10   0.00   0.11578  -0.15717   0.36781  4.6  1.2
    146    6   -27.4180   -56.7147   -10.1876     10   0.00   0.00000   0.00000   0.00000  4.5  0.9
    147    6   -28.1969   -58.1282    -7.8148     10   0.00   0.00000   0.00000   0.00000  4.5  0.9
    148    6   -26.8467   -59.2424    -5.6410     10   0.00   0.00000   0.00000   0.00000  4.5  0.9
    149    6   -25.4319   -58.9642    -3.2945     10   0.00   0.00000   0.00000   0.00000  4.5  0.9
    150    6   -24.4523   -58.2172    -0.7477     10   0.00   0.00000   0.00000   0.00000  4.5  0.9
    151    2   -21.4078   -61.2762    19.8675     11   0.70   0.00000   0.00000   0.00000  4.5  0.9
    152    3   -20.1485   -58.3258    21.1055     11  -0.70   0.00000   0.00000   0.00000  5.2  1.2
    153    4   -19.3645   -57.1316    18.3080     11   0.00  -0.09335   0.08728   0.30763  4.6  1.2
    154    5   -21.7112   -56.0239    16.0390     11   0.00   0.00044   0.19250  -0.36923  4.6  1.2
    155    6   -22.1093   -56.7498    13.2030     11   0.00   0.00000   0.00000   0.00000  4.5  0.9
    156    6   -21.9845   -57.7353    10.6310     11   0.00   0.00000   0.00000   0.00000  4.5  0.9
    157    6   -21.0297   -58.6948     8.1964     11   0.00   0.00000   0.00000   0.00000  4.5  0.9
    158    6   -20.2958   -60.2190     5.7431     11   0.00   0.00000   0.00000   0.00000  4.5  0.9
    159    6   -20.3875   -61.1402     3.1206     11   0.00   0.00000   0.00000   0.00000  4.5  0.9
    160    5   -17.1033   -58.4702    16.3776     11   0.00   0.08801  -0.20421  -0.35205  4.6  1.2
    161    6   -17.2910   -58.4244    13.2616     11   0.00   0.00000   0.00000   0.00000  4.5  0.9
    162    6   -17.4568   -56.1670    11.4358     11   0.00   0.00000   0.00000   0.00000  4.5  0.9
    163    6   -17.6998   -55.4411     8.8975     11   0.00   0.00000   0.00000   0.00000  4.5  0.9
    164    6   -18.4945   -55.1494     6.1278     11   0.00   0.00000   0.00000   0.00000  4.5  0.9
    165    6   -18.7506   -56.0925     3.7009     11   0.00   0.00000   0.00000   0.00000  4.5  0.9
    166    2   -17.8943   -59.4617   -21.0043     12   0.70   0.00000   0.00000   0.00000  4.5  0.9
    167    3   -20.2924   -58.0405   -19.6657     12  -0.70   0.00000   0.00000   0.00000  5.2  1.2
    168    4   -19.5965   -58.8753   -16.4118     12   0.00  -0.26344   0.00696  -0.20376  4.6  1.2
    169    5   -17.0621   -60.5399   -15.1032     12   0.00   0.07220  -0.00279   0.41008  4.6  1.2
    170    6   -16.3289   -60.2731   -12.2095     12   0.00   0.00000   0.00000   0.00000  4.5  0.9
    171    6   -16.4956   -58.0785   -10.2106     12   0.00   0.00000   0.00000   0.00000  4.5  0.9
    172    6   -15.8844   -57.8592    -7.4308     12   0.00   0.00000   0.00000   0.00000  4.5  0.9
    173    6   -15.1208   -58.6851    -4.7384     12   0.00   0.00000   0.00000   0.00000  4.5  0.9
    174    6   -14.2743   -58.6686    -1.9312     12   0.00   0.00000   0.00000   0.00000  4.5  0.9
    175    5   -21.5760   -58.4221   -13.8624     12   0.00   0.28899   0.25016   0.16521  4.6  1.2
    176    6   -21.5057   -57.6527   -11.0872     12   0.00   0.00000   0.00000   0.00000  4.5  0.9
    177    6   -21.6351   -56.9837    -8.3084     12   0.00   0.00000   0.00000   0.00000  4.5  0.9
    178    6   -20.9828   -58.3006    -5.8365     12   0.00   0.00000   0.00000   0.00000  4.5  0.9
    179    6   -19.9530   -58.6661    -3.2130     12   0.00   0.00000   0.00000   0.00000  4.5  0.9
    180    6   -18.9535   -57.6529    -0.7260     12   0.00   0.00000   0.00000   0.00000  4.5  0.9
    181    2   -12.2282   -57.0002    19.0171     13   0.70   0.00000   0.00000   0.00000  4.5  0.9
    182    3    -9.4506   -56.1245    17.8429     13  -0.70   0.00000   0.00000   0.00000  5.2  1.2
    183    4    -9.9145   -55.9483    14.7610     13   0.00   0.20754  -0.09854   0.24122  4.6  1.2
    184    5   -12.1018   -57.8397    13.2511     13   0.00   0.20017   0.10496  -0.34972  4.6  1.2
    185    6   -13.2722   -58.7282    10.7932     13   0.00   0.00000   0.00000   0.00000  4.5  0.9
    186    6   -14.4416   -58.7384     8.1654     13   0.00   0.00000   0.00000   0.00000  4.5  0.9
    187    6   -13.7932   -57.1319     6.0742     13   0.00   0.00000   0.00000   0.00000  4.5  0.9
    188    6   -13.5892   -55.7916     3.7402     13   0.00   0.00000   0.00000   0.00000  4.5  0.9
    189    6   -14.5932   -54.9967     1.5879     13   0.00   0.00000   0.00000   0.00000  4.5  0.9
    190    5    -9.2129   -53.7823    12.4140     13   0.00   0.27698  -0.16007  -0.26655  4.6  1.2
    191    6    -9.5073   -54.2939     9.5618     13   0.00   0.00000   0.00000   0.00000  4.5  0.9
    192    6    -9.5869   -56.7559     8.1994     13   0.00   0.00000   0.00000   0.00000  4.5  0.9
    193    6    -8.6324   -57.6051     5.6551     13   0.00   0.00000   0.00000   0.00000  4.5  0.9
    194    6    -8.6442   -57.2447     2.9180     13   0.00   0.00000   0.00000   0.00000  4.5  0.9
    195    6    -9.8134   -56.0642     0.6850     13   0.00   0.00000   0.00000   0.00000  4.5  0.9
    196    2    -9.8619   -61.0384   -19.4834     14   0.70   0.00000   0.00000   0.00000  4.5  0.9
    197    3   -12.3194   -58.9013   -19.1119     14  -0.70   0.00000   0.00000   0.00000  5.2  1.2
    198    4   -12.3429   -58.4155   -16.0349     14   0.00  -0.08864  -0.25883  -0.19005  4.6  1.2
    199    5   -11.4541   -60.7773   -13.8166     14   0.00  -0.26047  -0.07542   0.31600  4.6  1.2
    200    6   -11.6580   -61.5088   -11.2092     14   0.00   0.00000   0.00000   0.00000  4.5  0.9
    201    6   -12.4847   -61.3117    -8.5015     14   0.00   0.00000   0.00000   0.00000  4.5  0.9
    202    6   -10.7339   -60.1216    -6.5036     14   0.00   0.00000   0.00000   0.00000  4.5  0.9
    203    6    -9.6364   -59.1828    -3.9806     14   0.00   0.00000   0.00000   0.00000  4.5  0.9
    204    6    -8.3402   -59.7839    -1.4698     14   0.00   0.00000   0.00000   0.00000  4.5  0.9
    205    5   -13.4302   -55.8506   -14.3545     14   0.00   0.37187  -0.00118   0.18735  4.6  1.2
    206    6   -12.9258   -55.0043   -11.6464     14   0.00   0.00000   0.00000   0.00000  4.5  0.9
    207    6   -11.2938   -55.5466    -9.4099     14   0.00   0.00000   0.00000   0.00000  4.5  0.9
    208    6   -11.6881   -55.1311    -6.7031     14   0.00   0.00000   0.00000   0.00000  4.5  0.9
    209    6   -12.6688   -54.5277    -4.0754     14   0.00   0.00000   0.00000   0.00000  4.5  0.9
    210    6   -15.2662   -53.7639    -2.8247     14   0.00   0.00000   0.00000   0.00000  4.5  0.9
    211    2    -6.3623   -60.8928    18.7789     15   0.70   0.00000   0.00000   0.00000  4.5  0.9
    212    3    -4.2993   -58.7782    18.7370     15  -0.70   0.00000   0.00000   0.00000  5.2  1.2
    213    4    -3.8680   -57.9719    15.6577     15   0.00   0.27101  -0.04344   0.18878  4.6  1.2
    214    5    -5.4839   -57.5615    12.7698     15   0.00   0.34271   0.00736  -0.23641  4.6  1.2
    215    6    -5.0056   -56.2066    10.0996     15   0.00   0.00000   0.00000   0.00000  4.5  0.9
    216    6    -4.9971   -55.1737     7.4264     15   0.00   0.00000   0.00000   0.00000  4.5  0.9
    217    6    -3.8194   -56.4552     5.1413     15   0.00   0.00000   0.00000   0.00000  4.5  0.9
    218    6    -2.6593   -59.0428     4.1966     15   0.00   0.00000   0.00000   0.00000  4.5  0.9
    219    6    -0.9695   -61.2487     3.4830     15   0.00   0.00000   0.00000   0.00000  4.5  0.9
    220    5    -0.9800   -58.6690    14.2869     15   0.00  -0.02618  -0.40467  -0.09460  4.6  1.2
    221    6    -0.0941   -59.1768    11.6578     15   0.00   0.00000   0.00000   0.00000  4.5  0.9
    222    6    -0.6014   -58.1432     9.1794     15   0.00   0.00000   0.00000   0.00000  4.5  0.9
    223    6    -0.5687   -55.2202     8.1721     15   0.00   0.00000   0.00000   0.00000  4.5  0.9
    224    6    -0.2453   -53.2218     6.0297     15   0.00   0.00000   0.00000   0.00000  4.5  0.9
    225    6     0.0626   -52.8669     3.1559     15   0.00   0.00000   0.00000   0.00000  4.5  0.9
    226    2    -2.3500   -61.2312   -17.7603     16   0.70   0.00000   0.00000   0.00000  4.5  0.9
    227    3    -4.0974   -58.8872   -18.7358     16  -0.70   0.00000   0.00000   0.00000  5.2  1.2
    228    4    -4.7469   -57.3510   -16.0135     16   0.00  -0.22182  -0.13657  -0.20764  4.6  1.2
    229    5    -7.1523   -58.1911   -14.1377     16   0.00   0.07649  -0.40671  -0.04608  4.6  1.2
    230    6    -6.3955   -59.8800   -11.9054     16   0.00   0.00000   0.00000   0.00000  4.5  0.9
    231    6    -4.0264   -61.2393   -10.9724     16   0.00   0.00000   0.00000   0.00000  4.5  0.9
    232    6    -2.6186   -60.6587    -8.7104     16   0.00   0.00000   0.00000   0.00000  4.5  0.9
    233    6    -2.1864   -59.9996    -6.2061     16   0.00   0.00000   0.00000   0.00000  4.5  0.9
    234    6    -2.8691   -58.1816    -4.1137     16   0.00   0.00000   0.00000   0.00000  4.5  0.9
    235    5    -2.5315   -56.2507   -13.5310     16   0.00  -0.01911  -0.19428   0.36780  4.6  1.2
    236    6    -2.9193   -56.1242   -10.6211     16   0.00   0.00000   0.00000   0.00000  4.5  0.9
    237    6    -5.1961   -56.3776    -8.9036     16   0.00   0.00000   0.00000   0.00000  4.5  0.9
    238    6    -6.5058   -55.6972    -6.6613     16   0.00   0.00000   0.00000   0.00000  4.5  0.9
    239    6    -7.2351   -54.7313    -4.0806     16   0.00   0.00000   0.00000   0.00000  4.5  0.9
    240    6    -6.1483   -53.6719    -1.6813     16   0.00   0.00000   0.00000   0.00000  4.5  0.9
    241    2     3.7605   -55.6912    19.9833     17   0.70   0.00000   0.00000   0.00000  4.5  0.9
    242    3     5.8651   -58.3143    19.6532     17  -0.70   0.00000   0.00000   0.00000  5.2  1.2
    243    4     6.6708   -57.9968    16.6464     17   0.00   0.10007  -0.13000   0.28992  4.6  1.2
    244    5     4.2943   -58.1674    14.3545     17   0.00  -0.18611   0.37183   0.02215  4.6  1.2
    245    6     3.5630   -56.1799    12.5970     17   0.00   0.00000   0.00000   0.00000  4.5  0.9
    246    6     4.0387   -55.2564    10.0180     17   0.00   0.00000   0.00000   0.00000  4.5  0.9
    247    6     3.7397   -56.7404     7.4639     17   0.00   0.00000   0.00000   0.00000  4.5  0.9
    248    6     2.5129   -57.5770     5.0105     17   0.00   0.00000   0.00000   0.00000  4.5  0.9
    249    6     1.9768   -57.3427     2.1177     17   0.00   0.00000   0.00000   0.00000  4.5  0.9
    250    5     8.9507   -56.4105    14.9193     17   0.00   0.18249  -0.21870  -0.30374  4.6  1.2
    251    6     9.1038   -56.8201    11.9662     17   0.00   0.00000   0.00000   0.00000  4.5  0.9
    252    6     7.3889   -58.2994     9.9836     17   0.00   0.00000   0.00000   0.00000  4.5  0.9
    253    6     7.6876   -59.8488     7.5978     17   0.00   0.00000   0.00000   0.00000  4.5  0.9
    254    6     6.7326   -60.7142     5.1989     17   0.00   0.00000   0.00000   0.00000  4.5  0.9
    255    6     5.5355   -61.1630     2.5347     17   0.00   0.00000   0.00000   0.00000  4.5  0.9
    256    2     7.4903   -57.1462   -19.4105     18   0.70   0.00000   0.00000   0.00000  4.5  0.9
    257    3     4.4763   -58.5691   -19.6140     18  -0.70   0.00000   0.00000   0.00000  5.2  1.2
    258    4     4.3378   -58.9381   -16.4038     18   0.00  -0.13873   0.15982  -0.25726  4.6  1.2
    259    5     4.3889   -61.0097   -14.1080     18   0.00  -0.17449   0.09854   0.36501  4.6  1.2
    260    6     4.0278   -60.1920   -11.4503     18   0.00   0.00000   0.00000   0.00000  4.5  0.9
    261    6     1.8647   -58.4035   -10.4620     18   0.00   0.00000   0.00000   0.00000  4.5  0.9
    262    6     1.7060   -57.8812    -7.8501     18   0.00   0.00000   0.00000   0.00000  4.5  0.9
    263    6     2.2542   -58.0888    -5.0731     18   0.00   0.00000   0.00000   0.00000  4.5  0.9
    264    6     1.9344   -58.9152    -2.5250     18   0.00   0.00000   0.00000   0.00000  4.5  0.9
    265    5     5.1820   -56.1958   -14.7437     18   0.00   0.05426   0.38028   0.16071  4.6  1.2
    266    6     6.0672   -55.1625   -12.3013     18   0.00   0.00000   0.00000   0.00000  4.5  0.9
    267    6     6.8836   -55.3993    -9.9051     18   0.00   0.00000   0.00000   0.00000  4.5  0.9
    268    6     7.2713   -57.3300    -7.8887     18   0.00   0.00000   0.00000   0.00000  4.5  0.9
    269    6     7.7249   -57.7406    -5.1625     18   0.00   0.00000   0.00000   0.00000  4.5  0.9
    270    6     7.7144   -57.7789    -2.3680     18   0.00   0.00000   0.00000   0.00000  4.5  0.9
    271    2    10.5520   -61.1977    20.0842     19   0.70   0.00000   0.00000   0.00000  4.5  0.9
    272    3    12.2896   -58.6456    18.6947     19  -0.70   0.00000   0.00000   0.00000  5.2  1.2
    273    4    12.6587   -60.3028    15.9566     19   0.00  -0.01960   0.02235   0.33179  4.6  1.2
    274    5    10.2184   -61.4960    14.0136     19   0.00   0.05902   0.12309  -0.39339  4.6  1.2
    275    6    10.9139   -61.1275    10.9994     19   0.00   0.00000   0.00000   0.00000  4.5  0.9
    276    6    12.8400   -59.2934     9.7082     19   0.00   0.00000   0.00000   0.00000  4.5  0.9
    277    6    12.3540   -58.0318     7.3863     19   0.00   0.00000   0.00000   0.00000  4.5  0.9
    278    6    11.5216   -57.5996     4.7623     19   0.00   0.00000   0.00000   0.00000  4.5  0.9
    279    6    10.1546   -58.5327     2.3359     19   0.00   0.00000   0.00000   0.00000  4.5  0.9
    280    5    15.0037   -61.8075    14.4266     19   0.00   0.14154   0.08552  -0.38215  4.6  1.2
    281    6    15.2193    60.8110    11.8366     19   0.00   0.00000   0.00000   0.00000  4.5  0.9
    282    6    15.2700    59.7861     9.2133     19   0.00   0.00000   0.00000   0.00000  4.5  0.9
    283    6    14.0499    60.7401     6.9211     19   0.00   0.00000   0.00000   0.00000  4.5  0.9
    284    6    13.8754    61.6854     4.3795     19   0.00   0.00000   0.00000   0.00000  4.5  0.9
    285    6    14.0441    61.5932     1.6186     19   0.00   0.00000   0.00000   0.00000  4.5  0.9
    286    2    12.8737   -55.4260   -19.9555     20   0.70   0.00000   0.00000   0.00000  4.5  0.9
    287    3    12.3752   -58.1138   -19.0078     20  -0.70   0.00000   0.00000   0.00000  5.2  1.2
    288    4    10.7502   -57.8792   -16.1143     20   0.00   0.13317  -0.23416  -0.19597  4.6  1.2
    289    5     9.7651   -60.2668   -14.2451     20   0.00   0.01102  -0.36139   0.20655  4.6  1.2
    290    6     9.7745   -60.6907   -11.2051     20   0.00   0.00000   0.00000   0.00000  4.5  0.9
    291    6    11.9265   -60.3283    -9.1078     20   0.00   0.00000   0.00000   0.00000  4.5  0.9
    292    6    12.9936   -61.3582    -6.7096     20   0.00   0.00000   0.00000   0.00000  4.5  0.9
    293    6    11.6365   -61.7889    -4.1025     20   0.00   0.00000   0.00000   0.00000  4.5  0.9
    294    6    10.5005    61.7828    -1.4955     20   0.00   0.00000   0.00000   0.00000  4.5  0.9
    295    5    11.2896   -55.4757   -14.1770     20   0.00   0.10884  -0.07894   0.39410  4.6  1.2
    296    6    11.7145   -55.5310   -11.3119     20   0.00   0.00000   0.00000   0.00000  4.5  0.9