LAMMPS 'data.' description - created with Brahms (www.personal.soton.ac.uk/orsi/brahms)

     6152 atoms
     2176 bonds
     1664 angles

        6 atom types
        6 bond types
        4 angle types

    -34.08634     34.08634      xlo xhi
    -34.08634     34.08634      ylo yhi
    -31.56962     31.56962      zlo zhi

Atoms

      1    2    13.8626    30.6386    23.6901      1   0.70   0.00000   0.00000   0.00000  5.2  1.2
      2    3    17.6675   -31.1515    26.0558      1  -0.70   0.00000   0.00000   0.00000  5.2  1.2
      3    4    23.7233   -29.9989    26.2941      1   0.00  -0.15746  -0.28783  -0.05769  4.6  1.2
      4    5    24.1358    33.5129   -29.9759      1   0.00   0.32134   0.16786   0.20483  4.6  1.2
      5    6    21.8798   -30.5165    29.8425      1   0.00   0.00000   0.00000   0.00000  4.5  0.9
      6    6    21.6219   -33.0378    29.3976      1   0.00   0.00000   0.00000   0.00000  4.5  0.9
      7    6    27.5212   -32.8528    23.6314      1   0.00   0.00000   0.00000   0.00000  4.5  0.9
      8    6    26.9688   -31.6540    26.9430      1   0.00   0.00000   0.00000   0.00000  4.5  0.9
      9    6    25.3870   -32.3530    18.7858      1   0.00   0.00000   0.00000   0.00000  4.5  0.9
     10    5    23.3878   -28.0596    26.7298      1   0.00   0.21946  -0.31082  -0.16916  4.6  1.2
     11    6    20.5232   -22.7742    26.9158      1   0.00   0.00000   0.00000   0.00000  4.5  0.9
     12    6    16.5968   -24.1958    23.5854      1   0.00   0.00000   0.00000   0.00000  4.5  0.9
     13    6    17.8608   -19.3910    24.0474      1   0.00   0.00000   0.00000   0.00000  4.5  0.9
     14    6    16.9257   -14.7573    21.7870      1   0.00   0.00000   0.00000   0.00000  4.5  0.9
     15    6    17.8069   -15.2243    21.6618      1   0.00   0.00000   0.00000   0.00000  4.5  0.9
     16    2   -17.5390   -18.2606    -4.0111      2   0.70   0.00000   0.00000   0.00000  5.2  1.2
     17    3   -12.5613   -25.3137    -8.0614      2  -0.70   0.00000   0.00000   0.00000  5.2  1.2
     18    4   -16.3195   -25.2605   -18.9210      2   0.00   0.09437   0.12916   0.29220  4.6  1.2
     19    5   -16.8080   -31.7768   -16.6880      2   0.00  -0.22586  -0.33962   0.08389  4.6  1.2
     20    6   -12.6587   -29.3455   -15.1115      2   0.00   0.00000   0.00000   0.00000  4.5  0.9
     21    6   -11.0214   -31.5993   -15.4939      2   0.00   0.00000   0.00000   0.00000  4.5  0.9
     22    6   -10.3120    33.3522    -9.9019      2   0.00   0.00000   0.00000   0.00000  4.5  0.9
     23    6    -9.3219    31.7658    -9.9909      2   0.00   0.00000   0.00000   0.00000  4.5  0.9
     24    6   -11.5341    25.4879    -9.1009      2   0.00   0.00000   0.00000   0.00000  4.5  0.9
     25    5   -16.6523   -24.1817   -19.4840      2   0.00   0.09856   0.35456   0.19483  4.6  1.2
     26    6   -13.6714   -22.2520   -19.3890      2   0.00   0.00000   0.00000   0.00000  4.5  0.9
     27    6   -14.4684   -20.0772   -21.0923      2   0.00   0.00000   0.00000   0.00000  4.5  0.9
     28    6   -18.0610   -16.0098   -22.8098      2   0.00   0.00000   0.00000   0.00000  4.5  0.9
     29    6   -18.7560   -16.6808   -24.2733      2   0.00   0.00000   0.00000   0.00000  4.5  0.9
     30    6   -20.4366   -10.6056   -24.6111      2   0.00   0.00000   0.00000   0.00000  4.5  0.9
     31    2   -17.8933   -15.9440    25.6695      3   0.70   0.00000   0.00000   0.00000  5.2  1.2
     32    3   -19.2641   -13.9917    20.1120      3  -0.70   0.00000   0.00000   0.00000  5.2  1.2
     33    4   -18.3505   -14.7734    19.1624      3   0.00   0.12949   0.28494  -0.11407  4.6  1.2
     34    5   -14.3662   -15.4926    12.1369      3   0.00   0.20210   0.11992  -0.34375  4.6  1.2
     35    6   -14.2500   -17.0602    10.3700      3   0.00   0.00000   0.00000   0.00000  4.5  0.9
     36    6   -11.3201   -13.1945     6.6321      3   0.00   0.00000   0.00000   0.00000  4.5  0.9
     37    6    -6.9380   -13.9893     6.9512      3   0.00   0.00000   0.00000   0.00000  4.5  0.9
     38    6    -6.5399   -12.8850     6.7010      3   0.00   0.00000   0.00000   0.00000  4.5  0.9
     39    6    -6.2309   -10.0462     4.8048      3   0.00   0.00000   0.00000   0.00000  4.5  0.9
     40    5   -16.7562   -13.8656    15.7862      3   0.00  -0.28576  -0.26160   0.15264  4.6  1.2
     41    6   -19.5797   -15.6042    13.7863      3   0.00   0.00000   0.00000   0.00000  4.5  0.9
     42    6   -22.9655   -20.8700    10.7689      3   0.00   0.00000   0.00000   0.00000  4.5  0.9
     43    6   -19.6867   -20.3811    10.0768      3   0.00   0.00000   0.00000   0.00000  4.5  0.9
     44    6   -18.7784   -19.1677     8.8888      3   0.00   0.00000   0.00000   0.00000  4.5  0.9
     45    6   -12.0100   -23.5381     6.8158      3   0.00   0.00000   0.00000   0.00000  4.5  0.9
     46    2     7.6924    -4.4650   -14.3288      4   0.70   0.00000   0.00000   0.00000  5.2  1.2
     47    3     8.5961    -4.9105   -14.7483      4  -0.70   0.00000   0.00000   0.00000  5.2  1.2
     48    4     8.8449    -2.5551   -19.1992      4   0.00   0.14418   0.00063  -0.30030  4.6  1.2
     49    5     8.8406     3.9734   -17.9046      4   0.00  -0.30261  -0.28551  -0.01743  4.6  1.2
     50    6     4.7047     5.1190   -15.7627      4   0.00   0.00000   0.00000   0.00000  4.5  0.9
     51    6     5.7719     6.4182   -14.0777      4   0.00   0.00000   0.00000   0.00000  4.5  0.9
     52    6    -1.4808    11.9761   -12.9745      4   0.00   0.00000   0.00000   0.00000  4.5  0.9
     53    6    -0.2818    12.0319   -14.2651      4   0.00   0.00000   0.00000   0.00000  4.5  0.9
     54    6     2.2434     7.6341   -13.0640      4   0.00   0.00000   0.00000   0.00000  4.5  0.9
     55    5     7.0083    -4.1837   -18.3480      4   0.00   0.10443  -0.36156  -0.17821  4.6  1.2
     56    6     4.0936    -5.7442   -19.9271      4   0.00   0.00000   0.00000   0.00000  4.5  0.9
     57    6     3.8200    -1.0314   -19.2031      4   0.00   0.00000   0.00000   0.00000  4.5  0.9
     58    6    11.2362     7.3497   -19.0155      4   0.00   0.00000   0.00000   0.00000  4.5  0.9
     59    6    12.2355    15.8528   -22.2411      4   0.00   0.00000   0.00000   0.00000  4.5  0.9
     60    6    14.2995    15.9750   -23.4534      4   0.00   0.00000   0.00000   0.00000  4.5  0.9
     61    2    -7.2268   -29.1262    -8.3829      5   0.70   0.00000   0.00000   0.00000  5.2  1.2
     62    3    -7.7988   -27.8951    -6.5854      5  -0.70   0.00000   0.00000   0.00000  5.2  1.2
     63    4    -7.5478   -24.6977    -5.7790      5   0.00  -0.13514   0.07139  -0.29599  4.6  1.2
     64    5    -6.6123   -22.9820    -2.8845      5   0.00  -0.22946  -0.21898  -0.26979  4.6  1.2
     65    6    -5.7138   -22.5237    -2.5938      5   0.00   0.00000   0.00000   0.00000  4.5  0.9
     66    6    -2.1554   -27.4431     2.2177      5   0.00   0.00000   0.00000   0.00000  4.5  0.9
     67    6    -2.3473   -27.6404    -1.5665      5   0.00   0.00000   0.00000   0.00000  4.5  0.9
     68    6    -1.9784   -22.5992    -6.8643      5   0.00   0.00000   0.00000   0.00000  4.5  0.9
     69    6    -3.9233   -20.0409    -6.0101      5   0.00   0.00000   0.00000   0.00000  4.5  0.9
     70    5   -10.6610   -24.1768     0.7823      5   0.00   0.14594   0.35995   0.15010  4.6  1.2
     71    6   -16.4653   -25.9333     6.6183      5   0.00   0.00000   0.00000   0.00000  4.5  0.9
     72    6   -16.4880   -32.1512     7.5535      5   0.00   0.00000   0.00000   0.00000  4.5  0.9
     73    6   -13.5914   -31.7974    11.6080      5   0.00   0.00000   0.00000   0.00000  4.5  0.9
     74    6   -12.1867    32.1189    11.8120      5   0.00   0.00000   0.00000   0.00000  4.5  0.9
     75    6   -12.0607    27.5706    15.8140      5   0.00   0.00000   0.00000   0.00000  4.5  0.9
     76    2    -3.5743   -15.2577   -19.4421      6   0.70   0.00000   0.00000   0.00000  5.2  1.2
     77    3    -4.6810   -13.1108   -20.6516      6  -0.70   0.00000   0.00000   0.00000  5.2  1.2
     78    4    -7.3520    -9.4886   -19.9909      6   0.00   0.18362  -0.12187   0.24980  4.6  1.2
     79    5    -9.6801    -5.0373   -21.3970      6   0.00  -0.02043   0.28662  -0.30137  4.6  1.2
     80    6    -4.3968    -6.6468   -23.1338      6   0.00   0.00000   0.00000   0.00000  4.5  0.9
     81    6    -0.6650    -7.6967   -29.3323      6   0.00   0.00000   0.00000   0.00000  4.5  0.9
     82    6     5.1445    -7.2131   -27.3820      6   0.00   0.00000   0.00000   0.00000  4.5  0.9
     83    6     3.6055    -5.6204   -28.5635      6   0.00   0.00000   0.00000   0.00000  4.5  0.9
     84    6     6.2513    -6.1517    28.6570      6   0.00   0.00000   0.00000   0.00000  4.5  0.9
     85    5    -7.7977    -8.2599   -20.9638      6   0.00  -0.13286   0.27181  -0.28611  4.6  1.2
     86    6    -4.5812    -9.5492   -15.7920      6   0.00   0.00000   0.00000   0.00000  4.5  0.9
     87    6    -8.2306    -7.1108   -16.4496      6   0.00   0.00000   0.00000   0.00000  4.5  0.9
     88    6   -14.0043   -11.3597   -15.0398      6   0.00   0.00000   0.00000   0.00000  4.5  0.9
     89    6   -11.1742   -10.0984   -15.6370      6   0.00   0.00000   0.00000   0.00000  4.5  0.9
     90    6    -4.5291    -3.0727   -15.3405      6   0.00   0.00000   0.00000   0.00000  4.5  0.9
     91    2    -1.3869   -18.0452     6.6405      7   0.70   0.00000   0.00000   0.00000  5.2  1.2
     92    3    -1.0756   -18.0904     8.4340      7  -0.70   0.00000   0.00000   0.00000  5.2  1.2
     93    4     2.7021   -19.3089     6.5249      7   0.00  -0.26404   0.12054  -0.16346  4.6  1.2
     94    5     0.7708   -22.7937     9.4481      7   0.00  -0.32624  -0.19291   0.17246  4.6  1.2
     95    6    -0.1760   -24.8350     8.0768      7   0.00   0.00000   0.00000   0.00000  4.5  0.9
     96    6    -5.3135   -26.0226    10.6909      7   0.00   0.00000   0.00000   0.00000  4.5  0.9
     97    6   -10.7574   -19.0894     8.7544      7   0.00   0.00000   0.00000   0.00000  4.5  0.9
     98    6   -10.8687   -18.9633     7.3366      7   0.00   0.00000   0.00000   0.00000  4.5  0.9
     99    6    -6.7146   -12.4816     2.0253      7   0.00   0.00000   0.00000   0.00000  4.5  0.9
    100    5     5.8213   -16.9749     7.1352      7   0.00   0.13731   0.05752  -0.38888  4.6  1.2
    101    6     6.3212   -19.7150     3.5005      7   0.00   0.00000   0.00000   0.00000  4.5  0.9
    102    6     6.3210   -21.8794     5.1286      7   0.00   0.00000   0.00000   0.00000  4.5  0.9
    103    6     9.4804   -19.0282     8.6553      7   0.00   0.00000   0.00000   0.00000  4.5  0.9
    104    6     6.4204   -15.6685    10.7383      7   0.00   0.00000   0.00000   0.00000  4.5  0.9
    105    6    17.2461   -21.6818     9.9181      7   0.00   0.00000   0.00000   0.00000  4.5  0.9
    106    2    22.9417   -32.6856    -5.0526      8   0.70   0.00000   0.00000   0.00000  5.2  1.2
    107    3    23.2583   -32.1084    -6.1067      8  -0.70   0.00000   0.00000   0.00000  5.2  1.2
    108    4    17.8067   -25.1720    -8.5609      8   0.00   0.01459   0.07230   0.32485  4.6  1.2
    109    5    18.0495   -26.4847    -4.1731      8   0.00   0.26582  -0.31397  -0.06444  4.6  1.2
    110    6    17.3145   -26.0542    -1.2098      8   0.00   0.00000   0.00000   0.00000  4.5  0.9
    111    6    12.6480   -30.3016    -0.1578      8   0.00   0.00000   0.00000   0.00000  4.5  0.9
    112    6    12.5195    30.1678     0.9089      8   0.00   0.00000   0.00000   0.00000  4.5  0.9
    113    6     6.1357    31.1954     1.9415      8   0.00   0.00000   0.00000   0.00000  4.5  0.9
    114    6     2.2045    30.1737     1.1442      8   0.00   0.00000   0.00000   0.00000  4.5  0.9
    115    5    12.6922   -25.4131    -7.2056      8   0.00  -0.05779   0.27384  -0.30832  4.6  1.2
    116    6    11.5206   -25.6179    -8.7501      8   0.00   0.00000   0.00000   0.00000  4.5  0.9
    117    6     7.9457   -30.6095    -3.5766      8   0.00   0.00000   0.00000   0.00000  4.5  0.9
    118    6     7.5550   -31.8497    -2.2816      8   0.00   0.00000   0.00000   0.00000  4.5  0.9
    119    6    12.5453   -31.4753    -5.4164      8   0.00   0.00000   0.00000   0.00000  4.5  0.9
    120    6    18.9431   -33.3598     1.9313      8   0.00   0.00000   0.00000   0.00000  4.5  0.9
    121    2     6.5282   -17.4518    18.1295      9   0.70   0.00000   0.00000   0.00000  5.2  1.2
    122    3     4.7945   -17.1997    16.2183      9  -0.70   0.00000   0.00000   0.00000  5.2  1.2
    123    4     3.8246   -21.1255    16.7134      9   0.00   0.32293   0.08169   0.00337  4.6  1.2
    124    5     7.4566   -21.5230    19.0020      9   0.00  -0.20687   0.27761   0.23135  4.6  1.2
    125    6     9.0250   -21.7081    19.6649      9   0.00   0.00000   0.00000   0.00000  4.5  0.9
    126    6    19.5488   -25.9614    21.6106      9   0.00   0.00000   0.00000   0.00000  4.5  0.9
    127    6    21.0632   -25.9669    21.3065      9   0.00   0.00000   0.00000   0.00000  4.5  0.9
    128    6    20.6815    33.4783    22.1608      9   0.00   0.00000   0.00000   0.00000  4.5  0.9
    129    6    17.8587    33.9669    23.3629      9   0.00   0.00000   0.00000   0.00000  4.5  0.9
    130    5     7.6518   -25.5818    17.4536      9   0.00  -0.01378   0.14355   0.39063  4.6  1.2
    131    6    12.0815   -27.2233    16.5240      9   0.00   0.00000   0.00000   0.00000  4.5  0.9
    132    6    14.0331   -28.6578    12.4062      9   0.00   0.00000   0.00000   0.00000  4.5  0.9
    133    6    13.9759   -27.9719    12.5846      9   0.00   0.00000   0.00000   0.00000  4.5  0.9
    134    6    19.5832   -26.2356     9.9221      9   0.00   0.00000   0.00000   0.00000  4.5  0.9
    135    6    19.4702   -28.5628    10.0683      9   0.00   0.00000   0.00000   0.00000  4.5  0.9
    136    2    -4.1035    33.4156   -19.3994     10   0.70   0.00000   0.00000   0.00000  5.2  1.2
    137    3    -5.8752   -32.6579   -17.7683     10  -0.70   0.00000   0.00000   0.00000  5.2  1.2
    138    4    -6.4611   -31.3682   -14.5124     10   0.00   0.28568   0.05343   0.16279  4.6  1.2
    139    5    -3.1304   -26.6351   -12.0103     10   0.00   0.25709  -0.32354  -0.05115  4.6  1.2
    140    6    -3.2317   -26.4544   -10.6608     10   0.00   0.00000   0.00000   0.00000  4.5  0.9
    141    6    -0.3061   -28.0077    -9.4541     10   0.00   0.00000   0.00000   0.00000  4.5  0.9
    142    6     0.8206   -28.0041   -12.6688     10   0.00   0.00000   0.00000   0.00000  4.5  0.9
    143    6     0.4563   -25.6125   -20.7021     10   0.00   0.00000   0.00000   0.00000  4.5  0.9
    144    6    -2.3354   -25.3101   -19.0454     10   0.00   0.00000   0.00000   0.00000  4.5  0.9
    145    5    -6.6897   -30.7410   -13.6621     10   0.00   0.21559   0.26925  -0.23326  4.6  1.2
    146    6    -0.7555   -32.4648   -13.7155     10   0.00   0.00000   0.00000   0.00000  4.5  0.9
    147    6     3.2265   -28.2668   -20.7470     10   0.00   0.00000   0.00000   0.00000  4.5  0.9
    148    6     3.7089   -28.8137   -17.6251     10   0.00   0.00000   0.00000   0.00000  4.5  0.9
    149    6     6.0794   -23.6285   -17.9954     10   0.00   0.00000   0.00000   0.00000  4.5  0.9
    150    6     6.2327   -25.9022   -17.4812     10   0.00   0.00000   0.00000   0.00000  4.5  0.9
    151    2    -4.0580    19.0933    17.3215     11   0.70   0.00000   0.00000   0.00000  5.2  1.2
    152    3    -4.7073    18.7240    17.1118     11  -0.70   0.00000   0.00000   0.00000  5.2  1.2
    153    4    -3.9397    25.2221    13.8156     11   0.00   0.11410   0.31256  -0.01599  4.6  1.2
    154    5    -1.2166    28.5686    11.9414     11   0.00  -0.14500   0.06269  -0.38527  4.6  1.2
    155    6     1.8073    23.0034     6.2840     11   0.00   0.00000   0.00000   0.00000  4.5  0.9
    156    6    -8.3473    28.6558     5.7413     11   0.00   0.00000   0.00000   0.00000  4.5  0.9
    157    6    -9.8453    30.7316     8.7388     11   0.00   0.00000   0.00000   0.00000  4.5  0.9
    158    6    -7.3122   -29.8533     9.0110     11   0.00   0.00000   0.00000   0.00000  4.5  0.9
    159    6   -10.5847   -28.0904     3.1726     11   0.00   0.00000   0.00000   0.00000  4.5  0.9
    160    5    -0.2418    22.5848    11.6256     11   0.00   0.13895  -0.33125  -0.21061  4.6  1.2
    161    6     0.8577    20.7513    13.4592     11   0.00   0.00000   0.00000   0.00000  4.5  0.9
    162    6     5.1035    23.4275    15.9858     11   0.00   0.00000   0.00000   0.00000  4.5  0.9
    163    6     4.3326    27.3321    19.6328     11   0.00   0.00000   0.00000   0.00000  4.5  0.9
    164    6     0.5079    28.6544    16.5496     11   0.00   0.00000   0.00000   0.00000  4.5  0.9
    165    6     0.4713    24.5152    15.1055     11   0.00   0.00000   0.00000   0.00000  4.5  0.9
    166    2    -3.0531   -32.5451     3.2326     12   0.70   0.00000   0.00000   0.00000  5.2  1.2
    167    3    -3.4351   -31.9574     2.5351     12  -0.70   0.00000   0.00000   0.00000  5.2  1.2
    168    4    -1.4108   -32.3214    -1.1381     12   0.00   0.03490   0.25895  -0.20663  4.6  1.2
    169    5    -3.5135    28.3385     4.4395     12   0.00   0.06866   0.22627  -0.34275  4.6  1.2
    170    6    -5.9953    30.9582     3.6586     12   0.00   0.00000   0.00000   0.00000  4.5  0.9
    171    6    -3.7170   -29.9191     9.9698     12   0.00   0.00000   0.00000   0.00000  4.5  0.9
    172    6    -2.2238   -29.9912    10.3354     12   0.00   0.00000   0.00000   0.00000  4.5  0.9
    173    6    -1.8449   -29.9675    15.0549     12   0.00   0.00000   0.00000   0.00000  4.5  0.9
    174    6    -0.5735   -27.4699    15.9550     12   0.00   0.00000   0.00000   0.00000  4.5  0.9
    175    5    -2.1419   -33.0238    -2.7415     12   0.00   0.09923  -0.30147  -0.26956  4.6  1.2
    176    6    -1.3176    32.9759    -4.9640     12   0.00   0.00000   0.00000   0.00000  4.5  0.9
    177    6     2.9173    32.2116    -9.6980     12   0.00   0.00000   0.00000   0.00000  4.5  0.9
    178    6     4.0088    25.0689    -2.7888     12   0.00   0.00000   0.00000   0.00000  4.5  0.9
    179    6    10.5771    26.1510     1.3971     12   0.00   0.00000   0.00000   0.00000  4.5  0.9
    180    6    19.0727    20.9355     6.3824     12   0.00   0.00000   0.00000   0.00000  4.5  0.9
    181    2    33.0181    28.7180    25.2070     13   0.70   0.00000   0.00000   0.00000  5.2  1.2
    182    3   -32.0583    29.7323    24.3337     13  -0.70   0.00000   0.00000   0.00000  5.2  1.2
    183    4   -30.6856    29.7124    24.5298     13   0.00  -0.10708   0.04961   0.31152  4.6  1.2
    184    5   -33.1488    26.8852    28.4038     13   0.00   0.22061  -0.34235   0.08671  4.6  1.2
    185    6   -24.1510    27.3411    29.1829     13   0.00   0.00000   0.00000   0.00000  4.5  0.9
    186    6   -26.3673    29.2925    28.7684     13   0.00   0.00000   0.00000   0.00000  4.5  0.9
    187    6   -22.0909    26.7094   -28.4334     13   0.00   0.00000   0.00000   0.00000  4.5  0.9
    188    6   -21.1882    26.6973   -30.6229     13   0.00   0.00000   0.00000   0.00000  4.5  0.9
    189    6   -18.9450    28.2256   -30.3394     13   0.00   0.00000   0.00000   0.00000  4.5  0.9
    190    5   -30.8234    28.4927    31.2583     13   0.00   0.32759  -0.22974  -0.11531  4.6  1.2
    191    6   -29.8956    27.9509    31.5347     13   0.00   0.00000   0.00000   0.00000  4.5  0.9
    192    6   -25.7874    26.9934   -27.1852     13   0.00   0.00000   0.00000   0.00000  4.5  0.9
    193    6   -25.6614    24.7373   -26.6626     13   0.00   0.00000   0.00000   0.00000  4.5  0.9
    194    6   -32.5087    21.9037   -20.7464     13   0.00   0.00000   0.00000   0.00000  4.5  0.9
    195    6   -31.5087    23.1574   -22.5517     13   0.00   0.00000   0.00000   0.00000  4.5  0.9
    196    2    -0.7665     4.2321    -4.1145     14   0.70   0.00000   0.00000   0.00000  5.2  1.2
    197    3    -2.3943     8.7786    -4.3290     14  -0.70   0.00000   0.00000   0.00000  5.2  1.2
    198    4    -0.5600    17.2323    -3.6007     14   0.00   0.07946  -0.03821  -0.32124  4.6  1.2
    199    5    -7.1767    11.6157    -0.6523     14   0.00  -0.30551  -0.28196  -0.02342  4.6  1.2
    200    6    -7.3204    11.5334    -7.4137     14   0.00   0.00000   0.00000   0.00000  4.5  0.9
    201    6    -5.1360    12.1532   -10.8376     14   0.00   0.00000   0.00000   0.00000  4.5  0.9
    202    6    -5.1210    16.5228   -11.4957     14   0.00   0.00000   0.00000   0.00000  4.5  0.9
    203    6    -1.1224    15.8731   -11.3100     14   0.00   0.00000   0.00000   0.00000  4.5  0.9
    204    6    -5.6259    14.7108   -15.1799     14   0.00   0.00000   0.00000   0.00000  4.5  0.9
    205    5    -0.3927    16.2123    -2.4895     14   0.00   0.00869  -0.39908  -0.11854  4.6  1.2
    206    6    -3.2277    18.0955     3.1599     14   0.00   0.00000   0.00000   0.00000  4.5  0.9
    207    6    -0.6873    20.8382     8.2478     14   0.00   0.00000   0.00000   0.00000  4.5  0.9
    208    6    -2.6593    22.3672     8.3615     14   0.00   0.00000   0.00000   0.00000  4.5  0.9
    209    6     0.1868    27.6330     7.0058     14   0.00   0.00000   0.00000   0.00000  4.5  0.9
    210    6     0.0004    28.7325     7.6166     14   0.00   0.00000   0.00000   0.00000  4.5  0.9
    211    2    20.9120    26.5157    24.4839     15   0.70   0.00000   0.00000   0.00000  5.2  1.2
    212    3    23.6109    24.0326    23.3366     15  -0.70   0.00000   0.00000   0.00000  5.2  1.2
    213    4    26.5782    28.8373    18.3728     15   0.00  -0.03953   0.20837  -0.25689  4.6  1.2
    214    5    30.7234    33.1607    12.0609     15   0.00   0.18990   0.34109   0.14486  4.6  1.2
    215    6    31.8252    32.5590    10.4912     15   0.00   0.00000   0.00000   0.00000  4.5  0.9
    216    6   -32.8821    31.2539     9.2786     15   0.00   0.00000   0.00000   0.00000  4.5  0.9
    217    6   -31.8951   -33.1298    13.1834     15   0.00   0.00000   0.00000   0.00000  4.5  0.9
    218    6   -32.4895   -32.5867    12.9619     15   0.00   0.00000   0.00000   0.00000  4.5  0.9
    219    6    33.7294   -29.9364    12.2135     15   0.00   0.00000   0.00000   0.00000  4.5  0.9
    220    5    31.0824    30.8305    20.8334     15   0.00   0.27524   0.25179   0.18503  4.6  1.2
    221    6    32.3451    30.7543    21.4326     15   0.00   0.00000   0.00000   0.00000  4.5  0.9
    222    6   -27.7573    26.2999    26.0315     15   0.00   0.00000   0.00000   0.00000  4.5  0.9
    223    6   -27.8138    25.6553    24.9164     15   0.00   0.00000   0.00000   0.00000  4.5  0.9
    224    6   -25.6303    22.5943    27.0169     15   0.00   0.00000   0.00000   0.00000  4.5  0.9
    225    6   -24.9841    20.4346    28.7690     15   0.00   0.00000   0.00000   0.00000  4.5  0.9
    226    2    24.0757    15.3777    -6.0620     16   0.70   0.00000   0.00000   0.00000  5.2  1.2
    227    3    22.2336    18.4704    -4.9535     16  -0.70   0.00000   0.00000   0.00000  5.2  1.2
    228    4    21.7440    17.8105    -2.1674     16   0.00  -0.27473  -0.18764  -0.01676  4.6  1.2
    229    5    22.0574    18.8758     0.6973     16   0.00   0.34188  -0.20694  -0.11696  4.6  1.2
    230    6    26.5823    21.1060    -1.1630     16   0.00   0.00000   0.00000   0.00000  4.5  0.9
    231    6    23.6766    25.8455     0.0778     16   0.00   0.00000   0.00000   0.00000  4.5  0.9
    232    6    20.0386    24.9461     2.7778     16   0.00   0.00000   0.00000   0.00000  4.5  0.9
    233    6    20.5798    29.1608     2.3356     16   0.00   0.00000   0.00000   0.00000  4.5  0.9
    234    6    17.5113    29.6722     2.6410     16   0.00   0.00000   0.00000   0.00000  4.5  0.9
    235    5    18.5074    19.3943    -6.0133     16   0.00   0.40179  -0.08975  -0.06244  4.6  1.2
    236    6    18.2968    15.2567    -1.3071     16   0.00   0.00000   0.00000   0.00000  4.5  0.9
    237    6    20.9990    13.1149    -0.4073     16   0.00   0.00000   0.00000   0.00000  4.5  0.9
    238    6    17.6022    10.7436    -2.3832     16   0.00   0.00000   0.00000   0.00000  4.5  0.9
    239    6     9.6223     4.9671    -2.3434     16   0.00   0.00000   0.00000   0.00000  4.5  0.9
    240    6     9.4520     5.1294    -0.7863     16   0.00   0.00000   0.00000   0.00000  4.5  0.9
    241    2    30.9672   -24.8705    10.8992     17   0.70   0.00000   0.00000   0.00000  5.2  1.2
    242    3    31.8219   -25.3516    11.0312     17  -0.70   0.00000   0.00000   0.00000  5.2  1.2
    243    4   -33.7570   -29.4008     6.2694     17   0.00  -0.27487   0.00559   0.18811  4.6  1.2
    244    5   -33.9049   -28.8080     0.9270     17   0.00   0.40314  -0.09558   0.04158  4.6  1.2
    245    6   -27.4487   -29.4863     2.3346     17   0.00   0.00000   0.00000   0.00000  4.5  0.9
    246    6   -31.6803   -32.5157     2.1709     17   0.00   0.00000   0.00000   0.00000  4.5  0.9
    247    6   -32.8690   -29.7006    -3.0201     17   0.00   0.00000   0.00000   0.00000  4.5  0.9
    248    6   -32.3171   -29.2690    -4.5783     17   0.00   0.00000   0.00000   0.00000  4.5  0.9
    249    6   -33.9027   -20.9834    -3.8280     17   0.00   0.00000   0.00000   0.00000  4.5  0.9
    250    5   -30.3549    31.9686     2.5974     17   0.00  -0.06843   0.01523  -0.41046  4.6  1.2
    251    6   -28.4630    31.7453     3.6484     17   0.00   0.00000   0.00000   0.00000  4.5  0.9
    252    6   -24.9041    33.0218     6.1377     17   0.00   0.00000   0.00000   0.00000  4.5  0.9
    253    6   -23.1236   -29.5689     6.3436     17   0.00   0.00000   0.00000   0.00000  4.5  0.9
    254    6   -25.3902   -33.8529     9.4455     17   0.00   0.00000   0.00000   0.00000  4.5  0.9
    255    6   -29.3962    31.5875    15.0707     17   0.00   0.00000   0.00000   0.00000  4.5  0.9
    256    2    24.7549    -4.4592    25.5050     18   0.70   0.00000   0.00000   0.00000  5.2  1.2
    257    3    23.8529    -4.2268    26.2929     18  -0.70   0.00000   0.00000   0.00000  5.2  1.2
    258    4    20.7222    -6.9825    25.3594     18   0.00   0.32118  -0.08703  -0.01546  4.6  1.2
    259    5    17.0275   -14.0163    26.4956     18   0.00  -0.39190  -0.07331  -0.12011  4.6  1.2
    260    6    18.7836   -13.6824    27.6437     18   0.00   0.00000   0.00000   0.00000  4.5  0.9
    261    6    16.6234   -14.6300   -30.0292     18   0.00   0.00000   0.00000   0.00000  4.5  0.9
    262    6    15.7052   -15.5351   -24.0431     18   0.00   0.00000   0.00000   0.00000  4.5  0.9
    263    6    21.6755    -8.3570   -22.6631     18   0.00   0.00000   0.00000   0.00000  4.5  0.9
    264    6    23.1680    -7.7918   -15.8068     18   0.00   0.00000   0.00000   0.00000  4.5  0.9
    265    5    21.7032    -8.3003    24.4132     18   0.00  -0.05105   0.20449  -0.35912  4.6  1.2
    266    6    20.4896    -6.7302    21.1097     18   0.00   0.00000   0.00000   0.00000  4.5  0.9
    267    6    17.7499   -11.8398    18.6073     18   0.00   0.00000   0.00000   0.00000  4.5  0.9
    268    6    16.8927   -12.1583    17.6433     18   0.00   0.00000   0.00000   0.00000  4.5  0.9
    269    6    19.3926    -9.8953    14.4332     18   0.00   0.00000   0.00000   0.00000  4.5  0.9
    270    6    22.4689   -11.0714    13.5685     18   0.00   0.00000   0.00000   0.00000  4.5  0.9
    271    2    -5.2377   -14.2518   -13.1997     19   0.70   0.00000   0.00000   0.00000  5.2  1.2
    272    3    -4.4871   -13.3029   -12.2550     19  -0.70   0.00000   0.00000   0.00000  5.2  1.2
    273    4    -7.1423   -20.0314   -10.1335     19   0.00   0.11785  -0.08439  -0.29993  4.6  1.2
    274    5   -10.6473   -19.1680   -15.0984     19   0.00  -0.35541  -0.14822   0.15845  4.6  1.2
    275    6   -10.8431   -17.3270   -14.7570     19   0.00   0.00000   0.00000   0.00000  4.5  0.9
    276    6   -13.7829   -20.9892    -7.9978     19   0.00   0.00000   0.00000   0.00000  4.5  0.9
    277    6   -13.6813   -21.0478    -5.5974     19   0.00   0.00000   0.00000   0.00000  4.5  0.9
    278    6    -5.3055   -30.7733    -3.7521     19   0.00   0.00000   0.00000   0.00000  4.5  0.9
    279    6     0.7247   -32.1802    -7.5354     19   0.00   0.00000   0.00000   0.00000  4.5  0.9
    280    5    -9.1865   -13.7563    -8.9427     19   0.00  -0.13807  -0.10764   0.37781  4.6  1.2
    281    6    -8.6164   -12.2956    -7.5331     19   0.00   0.00000   0.00000   0.00000  4.5  0.9
    282    6    -5.5133    -6.9603    -0.1256     19   0.00   0.00000   0.00000   0.00000  4.5  0.9
    283    6   -11.9827    -5.0932     0.0417     19   0.00   0.00000   0.00000   0.00000  4.5  0.9
    284    6   -12.9821    -5.2226    -1.3136     19   0.00   0.00000   0.00000   0.00000  4.5  0.9
    285    6   -10.1005    -2.2242    -3.6599     19   0.00   0.00000   0.00000   0.00000  4.5  0.9
    286    2     4.9502   -18.7451    29.5332     20   0.70   0.00000   0.00000   0.00000  5.2  1.2
    287    3     3.0910   -18.2653    29.8306     20  -0.70   0.00000   0.00000   0.00000  5.2  1.2
    288    4     1.8622   -18.2547   -29.1801     20   0.00   0.01836   0.30370   0.13564  4.6  1.2
    289    5     9.5665   -16.0978   -27.7092     20   0.00   0.39027   0.11661   0.08647  4.6  1.2
    290    6     9.6448   -17.1554   -26.7181     20   0.00   0.00000   0.00000   0.00000  4.5  0.9
    291    6    16.1862   -19.4613   -29.7080     20   0.00   0.00000   0.00000   0.00000  4.5  0.9
    292    6    17.8148   -18.8141   -30.1505     20   0.00   0.00000   0.00000   0.00000  4.5  0.9
    293    6    17.9802   -16.9786    29.9262     20   0.00   0.00000   0.00000   0.00000  4.5  0.9
    294    6    16.8328   -17.8952    27.3504     20   0.00   0.00000   0.00000   0.00000  4.5  0.9
    295    5     0.0474   -20.4976   -27.9178     20   0.00   0.06238  -0.40858  -0.05057  4.6  1.2
    296    6     0.1421   -21.1223   -22.7546     20   0.00   0.00000   0.00000   0.00000  4.5  0.9