LAMMPS 'data.' description - created with Brahms (www.personal.soton.ac.uk/orsi/brahms)

     6152 atoms
     1792 bonds
     2048 angles

        6 atom types
        5 bond types
        5 angle types

    -34.02342     34.02342      xlo xhi
    -34.02342     34.02342      ylo yhi
    -31.76297     31.76297      zlo zhi

Atoms

      1    2    -3.9091    30.9847    18.1361      1   0.70   0.00000   0.00000   0.00000  5.2  1.2
      2    3     1.1270    29.1197    17.0764      1  -0.70   0.00000   0.00000   0.00000  5.2  1.2
      3    4     0.6345    28.7164    12.5234      1   0.00  -0.19226   0.19455   0.19015  4.6  1.2
      4    5     2.4512    27.6210    11.0725      1   0.00  -0.05778   0.37513  -0.17127  4.6  1.2
      5    6     4.1969    27.3328     9.6155      1   0.00   0.00000   0.00000   0.00000  4.5  0.9
      6    6     4.5494    27.7221     6.3668      1   0.00   0.00000   0.00000   0.00000  4.5  0.9
      7    6     3.6945    30.1531     3.3611      1   0.00   0.00000   0.00000   0.00000  4.5  0.9
      8    6     5.1360    30.5629     0.1160      1   0.00   0.00000   0.00000   0.00000  4.5  0.9
      9    6     3.1529    29.9155    -3.3613      1   0.00   0.00000   0.00000   0.00000  4.5  0.9
     10    5    -2.2188    27.3425    11.0406      1   0.00  -0.33789  -0.12748   0.20729  4.6  1.2
     11    6    -3.8553    25.2707     8.1313      1   0.00   0.00000   0.00000   0.00000  4.5  0.9
     12    6    -4.6208    22.4903     5.2179      1   0.00   0.00000   0.00000   0.00000  4.5  0.9
     13    6    -2.6861    23.8856     3.6004      1   0.00   0.00000   0.00000   0.00000  4.5  0.9
     14    6    -1.4933    26.5632     1.2963      1   0.00   0.00000   0.00000   0.00000  4.5  0.9
     15    6    -0.5010    29.1037    -0.2387      1   0.00   0.00000   0.00000   0.00000  4.5  0.9
     16    2   -10.2916     2.9994   -15.6938      2   0.70   0.00000   0.00000   0.00000  5.2  1.2
     17    3   -11.9056     7.0963   -15.5574      2  -0.70   0.00000   0.00000   0.00000  5.2  1.2
     18    4   -11.8093     8.6915   -12.1677      2   0.00   0.30815  -0.02154   0.12469  4.6  1.2
     19    5   -13.6645     8.2043    -9.0451      2   0.00  -0.26806   0.24087  -0.20859  4.6  1.2
     20    6   -15.6918    10.0088    -5.9956      2   0.00   0.00000   0.00000   0.00000  4.5  0.9
     21    6   -18.1363     9.2173    -2.8669      2   0.00   0.00000   0.00000   0.00000  4.5  0.9
     22    6   -20.2239    11.2380    -0.5856      2   0.00   0.00000   0.00000   0.00000  4.5  0.9
     23    6   -22.2216    14.0135     1.9662      2   0.00   0.00000   0.00000   0.00000  4.5  0.9
     24    6   -21.8314    17.7960     3.4242      2   0.00   0.00000   0.00000   0.00000  4.5  0.9
     25    5   -10.0729    11.4703   -10.9756      2   0.00  -0.24510   0.25106   0.22424  4.6  1.2
     26    6    -9.5990    15.4279    -9.7059      2   0.00   0.00000   0.00000   0.00000  4.5  0.9
     27    6    -7.0517    18.7345    -9.4866      2   0.00   0.00000   0.00000   0.00000  4.5  0.9
     28    6    -5.7738    20.2408    -6.2007      2   0.00   0.00000   0.00000   0.00000  4.5  0.9
     29    6    -5.4669    19.7354    -2.4981      2   0.00   0.00000   0.00000   0.00000  4.5  0.9
     30    6    -2.2671    21.0647    -0.3716      2   0.00   0.00000   0.00000   0.00000  4.5  0.9
     31    2    17.1296    -5.4480    13.5513      3   0.70   0.00000   0.00000   0.00000  5.2  1.2
     32    3    22.8448    -5.0629    15.9346      3  -0.70   0.00000   0.00000   0.00000  5.2  1.2
     33    4    25.5997    -5.9733    12.7769      3   0.00  -0.29986  -0.04682  -0.13733  4.6  1.2
     34    5    25.9144    -9.0905    10.7180      3   0.00  -0.27906  -0.12215  -0.28389  4.6  1.2
     35    6    25.5506   -12.3197    11.3211      3   0.00   0.00000   0.00000   0.00000  4.5  0.9
     36    6    26.5639   -14.9170    11.2003      3   0.00   0.00000   0.00000   0.00000  4.5  0.9
     37    6    29.5026   -14.7153    10.7440      3   0.00   0.00000   0.00000   0.00000  4.5  0.9
     38    6    31.4650   -15.9474     8.4001      3   0.00   0.00000   0.00000   0.00000  4.5  0.9
     39    6    33.7624   -18.1499     6.0289      3   0.00   0.00000   0.00000   0.00000  4.5  0.9
     40    5    28.7408    -4.8615    11.3185      3   0.00  -0.29439   0.09664  -0.27818  4.6  1.2
     41    6    30.8855    -4.1781     7.7103      3   0.00   0.00000   0.00000   0.00000  4.5  0.9
     42    6    30.4689    -2.9923     5.1125      3   0.00   0.00000   0.00000   0.00000  4.5  0.9
     43    6    29.2688    -5.6937     2.7261      3   0.00   0.00000   0.00000   0.00000  4.5  0.9
     44    6    27.2271    -7.0156     0.6089      3   0.00   0.00000   0.00000   0.00000  4.5  0.9
     45    6    28.0854    -7.7163    -2.0147      3   0.00   0.00000   0.00000   0.00000  4.5  0.9
     46    2    31.0046    -1.7976   -16.4124      4   0.70   0.00000   0.00000   0.00000  5.2  1.2
     47    3   -32.1403    -0.4072   -16.5716      4  -0.70   0.00000   0.00000   0.00000  5.2  1.2
     48    4   -30.7807    -0.2390   -13.4092      4   0.00   0.26708  -0.19669  -0.03083  4.6  1.2
     49    5   -32.6102     1.2624   -10.1481      4   0.00   0.03284   0.33531   0.24469  4.6  1.2
     50    6   -30.4578     1.4859    -7.1230      4   0.00   0.00000   0.00000   0.00000  4.5  0.9
     51    6   -30.2303     1.7983    -3.3485      4   0.00   0.00000   0.00000   0.00000  4.5  0.9
     52    6   -32.0241     3.2865    -1.1063      4   0.00   0.00000   0.00000   0.00000  4.5  0.9
     53    6    33.9790     1.6878     2.1730      4   0.00   0.00000   0.00000   0.00000  4.5  0.9
     54    6    30.4283     1.6754     3.2371      4   0.00   0.00000   0.00000   0.00000  4.5  0.9
     55    5   -28.1795     0.3541   -12.1914      4   0.00   0.21771  -0.20704  -0.28832  4.6  1.2
     56    6   -25.7813     1.0034    -8.5592      4   0.00   0.00000   0.00000   0.00000  4.5  0.9
     57    6   -23.9170     0.6903    -5.5458      4   0.00   0.00000   0.00000   0.00000  4.5  0.9
     58    6   -22.7185     3.8164    -4.5195      4   0.00   0.00000   0.00000   0.00000  4.5  0.9
     59    6   -20.9935     5.3865    -1.5561      4   0.00   0.00000   0.00000   0.00000  4.5  0.9
     60    6   -20.3106     7.1577     1.2287      4   0.00   0.00000   0.00000   0.00000  4.5  0.9
     61    2     4.6316   -17.5533    17.5876      5   0.70   0.00000   0.00000   0.00000  5.2  1.2
     62    3     9.2134   -14.1719    19.7583      5  -0.70   0.00000   0.00000   0.00000  5.2  1.2
     63    4     9.4291   -13.1234    15.4508      5   0.00  -0.26646  -0.19968  -0.00983  4.6  1.2
     64    5     8.0359   -13.5438    11.6658      5   0.00  -0.30358  -0.26440  -0.10640  4.6  1.2
     65    6     7.2653   -13.3323     8.1209      5   0.00   0.00000   0.00000   0.00000  4.5  0.9
     66    6     8.6575   -14.7072     4.9727      5   0.00   0.00000   0.00000   0.00000  4.5  0.9
     67    6     5.5811   -14.7841     3.0054      5   0.00   0.00000   0.00000   0.00000  4.5  0.9
     68    6     5.4417   -13.0073    -0.0914      5   0.00   0.00000   0.00000   0.00000  4.5  0.9
     69    6     3.7572   -12.0354    -2.7888      5   0.00   0.00000   0.00000   0.00000  4.5  0.9
     70    5    10.1484   -10.1215    14.3831      5   0.00  -0.35645  -0.03955  -0.21159  4.6  1.2
     71    6    10.8281    -8.7133    11.1554      5   0.00   0.00000   0.00000   0.00000  4.5  0.9
     72    6    13.8737    -7.8237     9.2828      5   0.00   0.00000   0.00000   0.00000  4.5  0.9
     73    6    13.9131    -4.6987    10.0114      5   0.00   0.00000   0.00000   0.00000  4.5  0.9
     74    6    16.8009    -0.9408    10.5357      5   0.00   0.00000   0.00000   0.00000  4.5  0.9
     75    6    15.6322     1.7838    12.0237      5   0.00   0.00000   0.00000   0.00000  4.5  0.9
     76    2   -16.1341   -33.2204   -18.7613      6   0.70   0.00000   0.00000   0.00000  5.2  1.2
     77    3   -11.7400    31.1276   -18.6258      6  -0.70   0.00000   0.00000   0.00000  5.2  1.2
     78    4   -11.2511    30.5140   -15.2490      6   0.00   0.09637   0.27460  -0.16210  4.6  1.2
     79    5   -10.4908    27.5134   -13.0574      6   0.00   0.35808   0.04674   0.20732  4.6  1.2
     80    6   -10.6387    25.5185   -11.3447      6   0.00   0.00000   0.00000   0.00000  4.5  0.9
     81    6    -8.8713    23.0443    -8.5663      6   0.00   0.00000   0.00000   0.00000  4.5  0.9
     82    6    -6.2733    25.5548    -6.8943      6   0.00   0.00000   0.00000   0.00000  4.5  0.9
     83    6    -2.7440    27.4025    -7.3651      6   0.00   0.00000   0.00000   0.00000  4.5  0.9
     84    6    -1.5571    28.9651    -5.4568      6   0.00   0.00000   0.00000   0.00000  4.5  0.9
     85    5    -8.7561    32.1966   -12.5394      6   0.00   0.35049  -0.13531   0.17955  4.6  1.2
     86    6    -6.2473   -32.8598   -10.2178      6   0.00   0.00000   0.00000   0.00000  4.5  0.9
     87    6    -4.1750   -30.9365    -8.3170      6   0.00   0.00000   0.00000   0.00000  4.5  0.9
     88    6    -7.0154   -30.7293    -4.1672      6   0.00   0.00000   0.00000   0.00000  4.5  0.9
     89    6    -9.2596   -28.4425    -2.0036      6   0.00   0.00000   0.00000   0.00000  4.5  0.9
     90    6   -11.8843   -28.5154     0.0235      6   0.00   0.00000   0.00000   0.00000  4.5  0.9
     91    2   -23.6124    30.3261    18.3756      7   0.70   0.00000   0.00000   0.00000  5.2  1.2
     92    3   -19.5114    32.5295    20.4656      7  -0.70   0.00000   0.00000   0.00000  5.2  1.2
     93    4   -18.1230    32.7645    16.8293      7   0.00  -0.30729   0.12244  -0.03933  4.6  1.2
     94    5   -18.7091    30.5287    13.5548      7   0.00  -0.24234  -0.23840   0.24047  4.6  1.2
     95    6   -18.0094    28.1671    10.7399      7   0.00   0.00000   0.00000   0.00000  4.5  0.9
     96    6   -17.0762    25.4264     7.9032      7   0.00   0.00000   0.00000   0.00000  4.5  0.9
     97    6   -17.1016    26.1885     3.7432      7   0.00   0.00000   0.00000   0.00000  4.5  0.9
     98    6   -15.7003    24.2072     1.1014      7   0.00   0.00000   0.00000   0.00000  4.5  0.9
     99    6   -15.9008    22.5814    -1.8865      7   0.00   0.00000   0.00000   0.00000  4.5  0.9
    100    5   -14.7879    32.7321    15.2371      7   0.00   0.07174   0.34524  -0.22148  4.6  1.2
    101    6   -12.0598   -33.5904    14.1795      7   0.00   0.00000   0.00000   0.00000  4.5  0.9
    102    6    -9.1062    33.3296    11.7684      7   0.00   0.00000   0.00000   0.00000  4.5  0.9
    103    6   -10.1425    33.6919     7.8173      7   0.00   0.00000   0.00000   0.00000  4.5  0.9
    104    6   -11.9347    33.9310     5.3853      7   0.00   0.00000   0.00000   0.00000  4.5  0.9
    105    6   -16.0163    32.9498     5.6162      7   0.00   0.00000   0.00000   0.00000  4.5  0.9
    106    2    19.8421    11.4821   -22.9672      8   0.70   0.00000   0.00000   0.00000  5.2  1.2
    107    3    20.8439    16.7977   -22.2993      8  -0.70   0.00000   0.00000   0.00000  5.2  1.2
    108    4    19.8941    15.9487   -17.8070      8   0.00  -0.05627  -0.23599  -0.22827  4.6  1.2
    109    5    17.2498    18.9095   -16.4879      8   0.00   0.03774   0.41191   0.04788  4.6  1.2
    110    6    13.8081    19.7030   -16.7586      8   0.00   0.00000   0.00000   0.00000  4.5  0.9
    111    6    11.1232    19.4214   -15.5802      8   0.00   0.00000   0.00000   0.00000  4.5  0.9
    112    6    10.8115    21.0512   -12.0170      8   0.00   0.00000   0.00000   0.00000  4.5  0.9
    113    6    10.9821    20.8170    -8.5943      8   0.00   0.00000   0.00000   0.00000  4.5  0.9
    114    6    11.4379    21.1226    -5.0911      8   0.00   0.00000   0.00000   0.00000  4.5  0.9
    115    5    19.9680    16.5182   -13.8589      8   0.00   0.01645  -0.36688   0.19627  4.6  1.2
    116    6    22.6716    15.8363   -10.4375      8   0.00   0.00000   0.00000   0.00000  4.5  0.9
    117    6    22.7783    15.3283    -7.3064      8   0.00   0.00000   0.00000   0.00000  4.5  0.9
    118    6    26.1412    12.9815    -7.2580      8   0.00   0.00000   0.00000   0.00000  4.5  0.9
    119    6    29.2382    10.8162    -6.2475      8   0.00   0.00000   0.00000   0.00000  4.5  0.9
    120    6    32.3658     9.8687    -5.2649      8   0.00   0.00000   0.00000   0.00000  4.5  0.9
    121    2    25.2383   -14.3658    21.2527      9   0.70   0.00000   0.00000   0.00000  5.2  1.2
    122    3    29.7698   -10.8045    22.0122      9  -0.70   0.00000   0.00000   0.00000  5.2  1.2
    123    4    31.3381    -9.8985    18.3729      9   0.00   0.26621  -0.05025   0.19385  4.6  1.2
    124    5   -33.7470    -8.7762    17.5298      9   0.00   0.15316   0.16203  -0.35168  4.6  1.2
    125    6   -32.3479   -10.2776    14.9027      9   0.00   0.00000   0.00000   0.00000  4.5  0.9
    126    6   -31.8261    -9.7848    11.3881      9   0.00   0.00000   0.00000   0.00000  4.5  0.9
    127    6   -32.9346   -12.1672     8.1182      9   0.00   0.00000   0.00000   0.00000  4.5  0.9
    128    6    33.7767   -13.4858     4.8494      9   0.00   0.00000   0.00000   0.00000  4.5  0.9
    129    6    30.7965   -16.0001     2.9058      9   0.00   0.00000   0.00000   0.00000  4.5  0.9
    130    5    30.0017    -9.1044    14.8586      9   0.00  -0.07109  -0.32881  -0.24540  4.6  1.2
    131    6    31.0760    -9.6842    12.6761      9   0.00   0.00000   0.00000   0.00000  4.5  0.9
    132    6    30.2450    -9.4716     9.4698      9   0.00   0.00000   0.00000   0.00000  4.5  0.9
    133    6    28.3581   -11.5347     6.7887      9   0.00   0.00000   0.00000   0.00000  4.5  0.9
    134    6    27.3152   -15.8026     6.2413      9   0.00   0.00000   0.00000   0.00000  4.5  0.9
    135    6    28.7400   -19.2828     6.8913      9   0.00   0.00000   0.00000   0.00000  4.5  0.9
    136    2     7.8346   -33.9551   -18.2638     10   0.70   0.00000   0.00000   0.00000  5.2  1.2
    137    3    11.5154   -30.2769   -17.6388     10  -0.70   0.00000   0.00000   0.00000  5.2  1.2
    138    4     9.5685   -29.9453   -14.0868     10   0.00   0.05180  -0.27225   0.18483  4.6  1.2
    139    5    11.3369   -31.8620   -11.4380     10   0.00   0.08232  -0.06350   0.40321  4.6  1.2
    140    6    10.7351   -32.3682    -8.2337     10   0.00   0.00000   0.00000   0.00000  4.5  0.9
    141    6     9.1667   -33.4718    -5.1406     10   0.00   0.00000   0.00000   0.00000  4.5  0.9
    142    6    10.0942   -30.7971    -2.7575     10   0.00   0.00000   0.00000   0.00000  4.5  0.9
    143    6    12.3631   -27.9893    -0.1747     10   0.00   0.00000   0.00000   0.00000  4.5  0.9
    144    6    13.7048   -26.8503     2.7020     10   0.00   0.00000   0.00000   0.00000  4.5  0.9
    145    5     7.9672   -26.8560   -11.8942     10   0.00   0.04077   0.29327   0.29278  4.6  1.2
    146    6     5.5400   -25.5170    -9.7706     10   0.00   0.00000   0.00000   0.00000  4.5  0.9
    147    6     4.7386   -25.4807    -6.3635     10   0.00   0.00000   0.00000   0.00000  4.5  0.9
    148    6     3.9565   -28.5794    -4.0779     10   0.00   0.00000   0.00000   0.00000  4.5  0.9
    149    6     1.7553   -31.6124    -2.4375     10   0.00   0.00000   0.00000   0.00000  4.5  0.9
    150    6     0.8364    33.4508    -0.3961     10   0.00   0.00000   0.00000   0.00000  4.5  0.9
    151    2   -27.8968   -28.5153    17.8556     11   0.70   0.00000   0.00000   0.00000  5.2  1.2
    152    3   -26.8803   -33.0118    16.8625     11  -0.70   0.00000   0.00000   0.00000  5.2  1.2
    153    4   -26.9530   -32.8274    12.8076     11   0.00   0.13788   0.16441   0.25481  4.6  1.2
    154    5   -28.2384   -31.0424    10.4404     11   0.00  -0.17853  -0.20650  -0.31444  4.6  1.2
    155    6   -30.4311   -31.8429     8.2754     11   0.00   0.00000   0.00000   0.00000  4.5  0.9
    156    6   -33.8454   -32.7812     7.6992     11   0.00   0.00000   0.00000   0.00000  4.5  0.9
    157    6    30.3464   -31.6789     7.8482     11   0.00   0.00000   0.00000   0.00000  4.5  0.9
    158    6    28.6774   -29.9482     9.0123     11   0.00   0.00000   0.00000   0.00000  4.5  0.9
    159    6    24.6327   -28.4228    10.1479     11   0.00   0.00000   0.00000   0.00000  4.5  0.9
    160    5   -28.3311    32.1743    10.8916     11   0.00   0.05292   0.14893  -0.38524  4.6  1.2
    161    6   -27.9840    29.7054     8.5841     11   0.00   0.00000   0.00000   0.00000  4.5  0.9
    162    6   -25.6013    28.7639     6.9940     11   0.00   0.00000   0.00000   0.00000  4.5  0.9
    163    6   -26.1448    29.3847     3.6728     11   0.00   0.00000   0.00000   0.00000  4.5  0.9
    164    6   -25.0658    31.8041     0.4576     11   0.00   0.00000   0.00000   0.00000  4.5  0.9
    165    6   -26.7850    31.9729    -2.9084     11   0.00   0.00000   0.00000   0.00000  4.5  0.9
    166    2   -19.4374   -23.1648   -19.9526     12   0.70   0.00000   0.00000   0.00000  5.2  1.2
    167    3   -24.4717   -20.8460   -19.2212     12  -0.70   0.00000   0.00000   0.00000  5.2  1.2
    168    4   -24.7050   -21.5693   -14.6329     12   0.00  -0.15593  -0.29377  -0.01891  4.6  1.2
    169    5   -25.7960   -19.3030   -11.8901     12   0.00  -0.28365  -0.17877   0.24693  4.6  1.2
    170    6   -29.2131   -18.5012    -9.7637     12   0.00   0.00000   0.00000   0.00000  4.5  0.9
    171    6   -31.4975   -21.9780    -8.1451     12   0.00   0.00000   0.00000   0.00000  4.5  0.9
    172    6   -33.3081   -23.1316    -9.6035     12   0.00   0.00000   0.00000   0.00000  4.5  0.9
    173    6    32.4767   -26.1767   -10.0075     12   0.00   0.00000   0.00000   0.00000  4.5  0.9
    174    6    33.0168   -29.3011   -10.9088     12   0.00   0.00000   0.00000   0.00000  4.5  0.9
    175    5   -23.7862   -24.1082   -13.3505     12   0.00  -0.00616  -0.41301  -0.05265  4.6  1.2
    176    6   -22.2535   -25.6882   -11.0300     12   0.00   0.00000   0.00000   0.00000  4.5  0.9
    177    6   -19.4913   -27.7484    -9.9725     12   0.00   0.00000   0.00000   0.00000  4.5  0.9
    178    6   -19.3071   -25.0642    -7.3282     12   0.00   0.00000   0.00000   0.00000  4.5  0.9
    179    6   -21.6031   -23.3306    -6.7170     12   0.00   0.00000   0.00000   0.00000  4.5  0.9
    180    6   -21.1583   -20.9177    -4.4467     12   0.00   0.00000   0.00000   0.00000  4.5  0.9
    181    2   -18.2160    -8.9156    14.9277     13   0.70   0.00000   0.00000   0.00000  5.2  1.2
    182    3   -21.6587   -11.9860    17.0445     13  -0.70   0.00000   0.00000   0.00000  5.2  1.2
    183    4   -23.9225   -11.7882    13.4497     13   0.00   0.18072  -0.25585  -0.11335  4.6  1.2
    184    5   -26.5327    -9.0153    12.9936     13   0.00  -0.05942   0.19744  -0.36177  4.6  1.2
    185    6   -27.1231    -7.3284    11.7308     13   0.00   0.00000   0.00000   0.00000  4.5  0.9
    186    6   -29.3303    -5.0732    11.7386     13   0.00   0.00000   0.00000   0.00000  4.5  0.9
    187    6   -29.4571    -2.2423     8.6736     13   0.00   0.00000   0.00000   0.00000  4.5  0.9
    188    6   -28.4865     0.8906     8.9476     13   0.00   0.00000   0.00000   0.00000  4.5  0.9
    189    6   -28.5134     3.3755    11.1178     13   0.00   0.00000   0.00000   0.00000  4.5  0.9
    190    5   -23.2439   -13.1559    10.9305     13   0.00   0.33405  -0.24269  -0.05391  4.6  1.2
    191    6   -23.2565   -13.4614     7.1588     13   0.00   0.00000   0.00000   0.00000  4.5  0.9
    192    6   -23.6071   -11.6835     4.6453     13   0.00   0.00000   0.00000   0.00000  4.5  0.9
    193    6   -26.2483   -10.8312     3.1909     13   0.00   0.00000   0.00000   0.00000  4.5  0.9
    194    6   -27.7699   -10.8927    -0.9199     13   0.00   0.00000   0.00000   0.00000  4.5  0.9
    195    6   -30.5398   -11.1132    -4.2212     13   0.00   0.00000   0.00000   0.00000  4.5  0.9
    196    2    27.8228    29.1834   -17.8439     14   0.70   0.00000   0.00000   0.00000  5.2  1.2
    197    3    29.8926   -33.7338   -18.4672     14  -0.70   0.00000   0.00000   0.00000  5.2  1.2
    198    4    32.6110   -32.3392   -15.4325     14   0.00  -0.30640  -0.08144   0.10225  4.6  1.2
    199    5    33.4278    33.8102   -12.4916     14   0.00  -0.31620  -0.24031   0.12513  4.6  1.2
    200    6   -32.3711   -33.3363    -9.0460     14   0.00   0.00000   0.00000   0.00000  4.5  0.9
    201    6   -29.1797   -31.4353    -7.3364     14   0.00   0.00000   0.00000   0.00000  4.5  0.9
    202    6   -26.7406   -30.7976    -3.8902     14   0.00   0.00000   0.00000   0.00000  4.5  0.9
    203    6   -24.1024   -31.1086    -0.7418     14   0.00   0.00000   0.00000   0.00000  4.5  0.9
    204    6   -23.4633   -32.0205     1.7761     14   0.00   0.00000   0.00000   0.00000  4.5  0.9
    205    5   -32.3008   -30.3828   -15.3364     14   0.00  -0.11490   0.34986   0.19439  4.6  1.2
    206    6   -30.2105   -30.3629   -11.8973     14   0.00   0.00000   0.00000   0.00000  4.5  0.9
    207    6   -29.8292   -27.5377   -10.1158     14   0.00   0.00000   0.00000   0.00000  4.5  0.9
    208    6   -32.0099   -27.2955    -6.8157     14   0.00   0.00000   0.00000   0.00000  4.5  0.9
    209    6   -30.3176   -27.8433    -4.3933     14   0.00   0.00000   0.00000   0.00000  4.5  0.9
    210    6   -28.9359   -27.8535    -0.4253     14   0.00   0.00000   0.00000   0.00000  4.5  0.9
    211    2    20.2885   -19.5739    17.1928     15   0.70   0.00000   0.00000   0.00000  5.2  1.2
    212    3    16.2838   -19.8031    15.2481     15  -0.70   0.00000   0.00000   0.00000  5.2  1.2
    213    4    15.8086   -16.9199    12.3435     15   0.00   0.32181   0.08544   0.01035  4.6  1.2
    214    5    16.6981   -16.5024     8.4562     15   0.00   0.29537  -0.27730  -0.09618  4.6  1.2
    215    6    19.1174   -16.9453     5.9238     15   0.00   0.00000   0.00000   0.00000  4.5  0.9
    216    6    21.7182   -18.0839     4.9258     15   0.00   0.00000   0.00000   0.00000  4.5  0.9
    217    6    23.8944   -16.4281     3.4716     15   0.00   0.00000   0.00000   0.00000  4.5  0.9
    218    6    26.6656   -16.2355     0.8766     15   0.00   0.00000   0.00000   0.00000  4.5  0.9
    219    6    29.9292   -16.1435    -2.0846     15   0.00   0.00000   0.00000   0.00000  4.5  0.9
    220    5    14.5195   -13.4386    12.3030     15   0.00   0.12190   0.38972  -0.08154  4.6  1.2
    221    6    16.3380   -11.6479    10.2251     15   0.00   0.00000   0.00000   0.00000  4.5  0.9
    222    6    17.9022   -12.1869     7.6013     15   0.00   0.00000   0.00000   0.00000  4.5  0.9
    223    6    16.2261    -8.5524     4.7491     15   0.00   0.00000   0.00000   0.00000  4.5  0.9
    224    6    13.4892    -5.5403     4.6417     15   0.00   0.00000   0.00000   0.00000  4.5  0.9
    225    6    10.1802    -6.1453     0.8705     15   0.00   0.00000   0.00000   0.00000  4.5  0.9
    226    2     9.0649    13.8165   -21.2371     16   0.70   0.00000   0.00000   0.00000  5.2  1.2
    227    3     5.7607     9.8843   -21.2682     16  -0.70   0.00000   0.00000   0.00000  5.2  1.2
    228    4     6.9199    10.7880   -17.2975     16   0.00   0.21826  -0.06821  -0.24224  4.6  1.2
    229    5     9.9362    14.0531   -16.4364     16   0.00  -0.21469  -0.16980   0.31379  4.6  1.2
    230    6    10.6472    14.8849   -13.4485     16   0.00   0.00000   0.00000   0.00000  4.5  0.9
    231    6     9.7568    16.1614   -10.4392     16   0.00   0.00000   0.00000   0.00000  4.5  0.9
    232    6    11.6371    15.9013    -7.0969     16   0.00   0.00000   0.00000   0.00000  4.5  0.9
    233    6    11.0314    16.5796    -3.6384     16   0.00   0.00000   0.00000   0.00000  4.5  0.9
    234    6     9.5579    18.0574    -0.8004     16   0.00   0.00000   0.00000   0.00000  4.5  0.9
    235    5     7.3940    10.7361   -14.1120     16   0.00  -0.27562  -0.27174   0.15356  4.6  1.2
    236    6     8.0050    11.9429   -10.4112     16   0.00   0.00000   0.00000   0.00000  4.5  0.9
    237    6     7.2193    13.3624    -6.5418     16   0.00   0.00000   0.00000   0.00000  4.5  0.9
    238    6     9.0132    12.2537    -3.0967     16   0.00   0.00000   0.00000   0.00000  4.5  0.9
    239    6    10.7689    13.0242    -0.3352     16   0.00   0.00000   0.00000   0.00000  4.5  0.9
    240    6    11.3670    15.4319     2.7411     16   0.00   0.00000   0.00000   0.00000  4.5  0.9
    241    2    21.2136    12.7567    13.4029     17   0.70   0.00000   0.00000   0.00000  5.2  1.2
    242    3    24.1132    15.9876    15.9005     17  -0.70   0.00000   0.00000   0.00000  5.2  1.2
    243    4    27.2612    15.8583    14.7538     17   0.00  -0.21389   0.03362   0.25316  4.6  1.2
    244    5    30.4025    13.5128    12.3010     17   0.00   0.09313   0.05468  -0.40215  4.6  1.2
    245    6    31.1516    10.5703    12.2401     17   0.00   0.00000   0.00000   0.00000  4.5  0.9
    246    6    32.2214     7.1483     8.9403     17   0.00   0.00000   0.00000   0.00000  4.5  0.9
    247    6    30.8905     6.4669     5.3524     17   0.00   0.00000   0.00000   0.00000  4.5  0.9
    248    6    27.5905     6.6669     3.4017     17   0.00   0.00000   0.00000   0.00000  4.5  0.9
    249    6    26.7858     4.5341     0.8416     17   0.00   0.00000   0.00000   0.00000  4.5  0.9
    250    5    28.9676    17.8153    12.2016     17   0.00   0.34575   0.11734  -0.20020  4.6  1.2
    251    6    31.6378    18.1336     9.3115     17   0.00   0.00000   0.00000   0.00000  4.5  0.9
    252    6    31.6447    18.9070     5.5975     17   0.00   0.00000   0.00000   0.00000  4.5  0.9
    253    6   -32.9242    17.2228     4.7468     17   0.00   0.00000   0.00000   0.00000  4.5  0.9
    254    6   -31.0454    14.6179     4.8994     17   0.00   0.00000   0.00000   0.00000  4.5  0.9
    255    6   -30.5054    11.5147     2.8694     17   0.00   0.00000   0.00000   0.00000  4.5  0.9
    256    2     0.4892   -28.5551   -14.8367     18   0.70   0.00000   0.00000   0.00000  5.2  1.2
    257    3    -5.2805   -28.4987   -16.0482     18  -0.70   0.00000   0.00000   0.00000  5.2  1.2
    258    4    -5.6217   -27.0827   -12.4131     18   0.00  -0.12178  -0.05961  -0.30428  4.6  1.2
    259    5    -2.1928   -27.3455   -10.7120     18   0.00   0.40459  -0.05156   0.08388  4.6  1.2
    260    6     0.6402   -25.8098    -8.9669     18   0.00   0.00000   0.00000   0.00000  4.5  0.9
    261    6     0.3134   -23.3884    -6.7235     18   0.00   0.00000   0.00000   0.00000  4.5  0.9
    262    6     0.9980   -24.9136    -3.0810     18   0.00   0.00000   0.00000   0.00000  4.5  0.9
    263    6     0.9754   -26.4965    -0.5522     18   0.00   0.00000   0.00000   0.00000  4.5  0.9
    264    6     3.0420   -27.7346     1.9755     18   0.00   0.00000   0.00000   0.00000  4.5  0.9
    265    5    -8.1205   -24.8657   -11.2790     18   0.00  -0.00538   0.34050  -0.23962  4.6  1.2
    266    6    -9.8705   -23.0974   -10.3617     18   0.00   0.00000   0.00000   0.00000  4.5  0.9
    267    6   -10.4142   -22.2303    -7.1902     18   0.00   0.00000   0.00000   0.00000  4.5  0.9
    268    6    -8.7411   -23.5250    -4.8463     18   0.00   0.00000   0.00000   0.00000  4.5  0.9
    269    6    -7.0204   -23.4398    -3.6715     18   0.00   0.00000   0.00000   0.00000  4.5  0.9
    270    6    -3.9169   -21.8946    -3.0179     18   0.00   0.00000   0.00000   0.00000  4.5  0.9
    271    2   -32.6106   -15.2503    22.6020     19   0.70   0.00000   0.00000   0.00000  5.2  1.2
    272    3   -27.0371   -12.3676    21.5494     19  -0.70   0.00000   0.00000   0.00000  5.2  1.2
    273    4   -26.4970   -13.9032    18.1972     19   0.00   0.05839   0.29819  -0.13655  4.6  1.2
    274    5   -25.0058   -16.0724    16.4731     19   0.00  -0.00828   0.24856  -0.33397  4.6  1.2
    275    6   -25.9419   -17.2586    12.2324     19   0.00   0.00000   0.00000   0.00000  4.5  0.9
    276    6   -24.7342   -18.0368     8.5791     19   0.00   0.00000   0.00000   0.00000  4.5  0.9
    277    6   -25.2867   -17.3939     5.0816     19   0.00   0.00000   0.00000   0.00000  4.5  0.9
    278    6   -25.2623   -15.2870     2.1375     19   0.00   0.00000   0.00000   0.00000  4.5  0.9
    279    6   -23.9409   -12.9344    -0.8483     19   0.00   0.00000   0.00000   0.00000  4.5  0.9
    280    5   -28.8853   -13.2520    15.8058     19   0.00  -0.11216   0.40069  -0.01596  4.6  1.2
    281    6   -29.2210   -13.5351    12.0233     19   0.00   0.00000   0.00000   0.00000  4.5  0.9
    282    6   -27.7505   -12.4477     9.5796     19   0.00   0.00000   0.00000   0.00000  4.5  0.9
    283    6   -26.3184    -9.3027     7.8486     19   0.00   0.00000   0.00000   0.00000  4.5  0.9
    284    6   -24.3281    -6.6429     5.1689     19   0.00   0.00000   0.00000   0.00000  4.5  0.9
    285    6   -23.0061    -3.4042     2.0393     19   0.00   0.00000   0.00000   0.00000  4.5  0.9
    286    2    11.0078   -25.3628   -19.9081     20   0.70   0.00000   0.00000   0.00000  5.2  1.2
    287    3     9.5429   -21.0323   -18.8592     20  -0.70   0.00000   0.00000   0.00000  5.2  1.2
    288    4     9.9361   -20.4467   -15.2753     20   0.00   0.03123   0.20296  -0.26230  4.6  1.2
    289    5    11.4530   -23.7554   -12.5368     20   0.00  -0.32035  -0.18852   0.18769  4.6  1.2
    290    6    12.9030   -25.8540   -10.1635     20   0.00   0.00000   0.00000   0.00000  4.5  0.9
    291    6    14.1599   -29.0110    -7.8433     20   0.00   0.00000   0.00000   0.00000  4.5  0.9
    292    6    13.6289   -26.6698    -5.3307     20   0.00   0.00000   0.00000   0.00000  4.5  0.9
    293    6    13.4923   -23.3804    -3.1983     20   0.00   0.00000   0.00000   0.00000  4.5  0.9
    294    6    14.3591   -22.5044     0.1210     20   0.00   0.00000   0.00000   0.00000  4.5  0.9
    295    5     9.4413   -19.0735   -13.1427     20   0.00  -0.08536   0.39183   0.11211  4.6  1.2
    296    6     8.5366   -19.7928   -10.6806     20   0.00   0.00000   0.00000   0.00000  4.5  0.9