LAMMPS 'data.' input file - made with Brahms (http://code.google.com/p/brahms-md)

     6152 atoms
     1792 bonds
     2048 angles

        6 atom types
        5 bond types
        5 angle types

    -34.02342     34.02342      xlo xhi
    -34.02342     34.02342      ylo yhi
    -31.76297     31.76297      zlo zhi

Atoms

      1    2    -3.5840    32.5575    18.3721      1   0.70   0.00000   0.00000   0.00000  5.4  1.1
      2    3    -1.1948    28.6415    19.2144      1  -0.70   0.00000   0.00000   0.00000  5.2  1.2
      3    4    -1.0950    25.8699    15.7857      1   0.00  -0.13499   0.16462   0.25622  4.6  1.2
      4    5     1.8910    27.8956    13.1144      1   0.00   0.26042  -0.32184  -0.04465  4.6  1.2
      5    6     3.4937    28.3872     9.2322      1   0.00   0.00000   0.00000   0.00000  4.5  0.9
      6    6     6.5332    27.1686     6.7219      1   0.00   0.00000   0.00000   0.00000  4.5  0.9
      7    6     5.6545    28.6422     2.8264      1   0.00   0.00000   0.00000   0.00000  4.5  0.9
      8    6     5.0075    29.1249    -1.0624      1   0.00   0.00000   0.00000   0.00000  4.5  0.9
      9    6     6.6476    29.2894    -4.8727      1   0.00   0.00000   0.00000   0.00000  4.5  0.9
     10    5    -4.0711    25.3352    12.3900      1   0.00  -0.01281   0.32574  -0.25908  4.6  1.2
     11    6    -4.3865    23.2777     8.2691      1   0.00   0.00000   0.00000   0.00000  4.5  0.9
     12    6    -3.9506    22.1352     4.4937      1   0.00   0.00000   0.00000   0.00000  4.5  0.9
     13    6    -1.3271    23.7362     1.6038      1   0.00   0.00000   0.00000   0.00000  4.5  0.9
     14    6     1.3989    26.0088    -0.5814      1   0.00   0.00000   0.00000   0.00000  4.5  0.9
     15    6     1.4917    27.6431    -4.3721      1   0.00   0.00000   0.00000   0.00000  4.5  0.9
     16    2   -11.7099     0.9114   -14.1491      2   0.70   0.00000   0.00000   0.00000  5.4  1.1
     17    3   -10.3748     5.0818   -12.7160      2  -0.70   0.00000   0.00000   0.00000  5.2  1.2
     18    4   -11.3936     9.0920   -10.8609      2   0.00   0.16333  -0.21475  -0.19539  4.6  1.2
     19    5   -13.2615     8.1560    -6.9315      2   0.00  -0.24447   0.33082  -0.06467  4.6  1.2
     20    6   -15.4495    10.9059    -4.3730      2   0.00   0.00000   0.00000   0.00000  4.5  0.9
     21    6   -19.2780    11.8148    -2.5072      2   0.00   0.00000   0.00000   0.00000  4.5  0.9
     22    6   -18.6135    12.8624     1.2809      2   0.00   0.00000   0.00000   0.00000  4.5  0.9
     23    6   -20.4015    14.5964     4.4581      2   0.00   0.00000   0.00000   0.00000  4.5  0.9
     24    6   -24.0965    15.6221     5.7871      2   0.00   0.00000   0.00000   0.00000  4.5  0.9
     25    5   -10.2436    13.5909   -11.1622      2   0.00  -0.22103   0.32923   0.12705  4.6  1.2
     26    6   -10.4154    17.3620    -9.1060      2   0.00   0.00000   0.00000   0.00000  4.5  0.9
     27    6    -7.6739    20.4924    -8.8381      2   0.00   0.00000   0.00000   0.00000  4.5  0.9
     28    6    -5.1197    22.8899    -6.9750      2   0.00   0.00000   0.00000   0.00000  4.5  0.9
     29    6    -4.8555    22.0546    -2.8803      2   0.00   0.00000   0.00000   0.00000  4.5  0.9
     30    6    -5.8361    24.3939     0.3612      2   0.00   0.00000   0.00000   0.00000  4.5  0.9
     31    2    16.5347    -5.2906    17.3971      3   0.70   0.00000   0.00000   0.00000  5.4  1.1
     32    3    20.9082    -5.4858    16.1680      3  -0.70   0.00000   0.00000   0.00000  5.2  1.2
     33    4    22.7717    -7.2154    12.4945      3   0.00  -0.11406   0.24497   0.19480  4.6  1.2
     34    5    25.1121   -10.9009    11.7951      3   0.00   0.38901   0.07721   0.12687  4.6  1.2
     35    6    25.9221   -13.2023     8.1984      3   0.00   0.00000   0.00000   0.00000  4.5  0.9
     36    6    28.1663   -16.2156     6.7877      3   0.00   0.00000   0.00000   0.00000  4.5  0.9
     37    6    30.9547   -19.1615     7.8732      3   0.00   0.00000   0.00000   0.00000  4.5  0.9
     38    6   -32.9214   -19.9756     7.0602      3   0.00   0.00000   0.00000   0.00000  4.5  0.9
     39    6   -29.6050   -22.2577     5.8947      3   0.00   0.00000   0.00000   0.00000  4.5  0.9
     40    5    25.9066    -3.8765    12.0453      3   0.00   0.11329   0.23436  -0.32500  4.6  1.2
     41    6    28.9002    -3.3097     9.1271      3   0.00   0.00000   0.00000   0.00000  4.5  0.9
     42    6    27.9165    -5.5474     5.8019      3   0.00   0.00000   0.00000   0.00000  4.5  0.9
     43    6    30.1783    -6.6538     2.4475      3   0.00   0.00000   0.00000   0.00000  4.5  0.9
     44    6    31.6651    -5.8427    -1.5784      3   0.00   0.00000   0.00000   0.00000  4.5  0.9
     45    6    32.6750    -5.4998    -5.5487      3   0.00   0.00000   0.00000   0.00000  4.5  0.9
     46    2    32.3718    -0.1053   -15.6173      4   0.70   0.00000   0.00000   0.00000  5.4  1.1
     47    3   -31.7167     1.8282   -15.6259      4  -0.70   0.00000   0.00000   0.00000  5.2  1.2
     48    4   -32.3480     5.2173   -12.6108      4   0.00   0.11152  -0.16476  -0.26719  4.6  1.2
     49    5   -33.7053     5.7526    -8.1816      4   0.00  -0.17902  -0.08590   0.36601  4.6  1.2
     50    6    33.3875     5.5639    -4.0961      4   0.00   0.00000   0.00000   0.00000  4.5  0.9
     51    6   -32.9410     3.4236    -1.1387      4   0.00   0.00000   0.00000   0.00000  4.5  0.9
     52    6   -32.9483     1.9595     2.8045      4   0.00   0.00000   0.00000   0.00000  4.5  0.9
     53    6    31.5316     2.8643     4.3645      4   0.00   0.00000   0.00000   0.00000  4.5  0.9
     54    6    27.8236     2.4565     2.5884      4   0.00   0.00000   0.00000   0.00000  4.5  0.9
     55    5   -29.6526     2.2935   -10.7696      4   0.00   0.23395   0.29709   0.17435  4.6  1.2
     56    6   -26.2649     2.3426    -8.0243      4   0.00   0.00000   0.00000   0.00000  4.5  0.9
     57    6   -25.1738     2.7820    -4.1107      4   0.00   0.00000   0.00000   0.00000  4.5  0.9
     58    6   -27.0944     5.7648    -2.1894      4   0.00   0.00000   0.00000   0.00000  4.5  0.9
     59    6   -25.2674     5.8014     1.6911      4   0.00   0.00000   0.00000   0.00000  4.5  0.9
     60    6   -21.5462     4.6262     2.6459      4   0.00   0.00000   0.00000   0.00000  4.5  0.9
     61    2     1.5522   -12.8929    18.6071      5   0.70   0.00000   0.00000   0.00000  5.4  1.1
     62    3     6.0391   -13.7214    18.8920      5  -0.70   0.00000   0.00000   0.00000  5.2  1.2
     63    4     8.1764    -9.9028    18.1794      5   0.00   0.06696  -0.24766   0.21249  4.6  1.2
     64    5     8.9054   -11.5931    14.0607      5   0.00  -0.41491   0.01985  -0.02910  4.6  1.2
     65    6     8.2266   -14.4605    10.7838      5   0.00   0.00000   0.00000   0.00000  4.5  0.9
     66    6     6.6109   -17.3522     8.5248      5   0.00   0.00000   0.00000   0.00000  4.5  0.9
     67    6     5.8083   -16.8427     4.5555      5   0.00   0.00000   0.00000   0.00000  4.5  0.9
     68    6     5.4089   -15.0322     0.8808      5   0.00   0.00000   0.00000   0.00000  4.5  0.9
     69    6     8.0684   -12.3144    -0.2088      5   0.00   0.00000   0.00000   0.00000  4.5  0.9
     70    5     6.9716    -7.0285    14.8523      5   0.00   0.37521   0.08241   0.16068  4.6  1.2
     71    6     9.6897    -4.0068    13.2019      5   0.00   0.00000   0.00000   0.00000  4.5  0.9
     72    6    13.4510    -2.8520    11.6255      5   0.00   0.00000   0.00000   0.00000  4.5  0.9
     73    6    12.9219     1.3267    11.4438      5   0.00   0.00000   0.00000   0.00000  4.5  0.9
     74    6    12.1636     4.2253    14.3516      5   0.00   0.00000   0.00000   0.00000  4.5  0.9
     75    6     9.1440     6.1838    16.4579      5   0.00   0.00000   0.00000   0.00000  4.5  0.9
     76    2   -14.9715    32.8682   -20.4885      6   0.70   0.00000   0.00000   0.00000  5.4  1.1
     77    3   -10.8125    32.2294   -18.3720      6  -0.70   0.00000   0.00000   0.00000  5.2  1.2
     78    4   -11.6125    28.6690   -15.9193      6   0.00  -0.04843   0.32593   0.04893  4.6  1.2
     79    5    -9.0036    26.3954   -12.8618      6   0.00  -0.28391   0.12855   0.27615  4.6  1.2
     80    6    -9.3815    25.1725    -8.6556      6   0.00   0.00000   0.00000   0.00000  4.5  0.9
     81    6    -8.0980    25.3622    -4.7329      6   0.00   0.00000   0.00000   0.00000  4.5  0.9
     82    6    -6.1491    28.9289    -4.3527      6   0.00   0.00000   0.00000   0.00000  4.5  0.9
     83    6    -3.7395    32.4289    -4.6076      6   0.00   0.00000   0.00000   0.00000  4.5  0.9
     84    6     0.1954    33.0376    -6.3305      6   0.00   0.00000   0.00000   0.00000  4.5  0.9
     85    5    -9.3799    31.2506   -12.9676      6   0.00   0.10978   0.40095  -0.02401  4.6  1.2
     86    6    -7.4278   -33.4366   -11.0907      6   0.00   0.00000   0.00000   0.00000  4.5  0.9
     87    6    -3.8391   -31.6305   -10.2332      6   0.00   0.00000   0.00000   0.00000  4.5  0.9
     88    6    -4.2964   -30.7981    -6.2868      6   0.00   0.00000   0.00000   0.00000  4.5  0.9
     89    6    -6.5798   -31.0798    -3.1265      6   0.00   0.00000   0.00000   0.00000  4.5  0.9
     90    6    -8.3282   -32.0743     0.3059      6   0.00   0.00000   0.00000   0.00000  4.5  0.9
     91    2   -21.0568    32.4819    17.3168      7   0.70   0.00000   0.00000   0.00000  5.4  1.1
     92    3   -16.5866    32.8505    17.9161      7  -0.70   0.00000   0.00000   0.00000  5.2  1.2
     93    4   -14.4274    29.4906    15.4474      7   0.00  -0.07513   0.28010   0.16391  4.6  1.2
     94    5   -17.4948    30.1887    12.2194      7   0.00  -0.01771  -0.37486  -0.18043  4.6  1.2
     95    6   -18.9629    27.2885     9.1396      7   0.00   0.00000   0.00000   0.00000  4.5  0.9
     96    6   -17.4038    23.7013     9.5371      7   0.00   0.00000   0.00000   0.00000  4.5  0.9
     97    6   -16.9114    21.6373     6.1027      7   0.00   0.00000   0.00000   0.00000  4.5  0.9
     98    6   -17.1362    23.5522     2.4479      7   0.00   0.00000   0.00000   0.00000  4.5  0.9
     99    6   -18.3792    25.4106    -0.8075      7   0.00   0.00000   0.00000   0.00000  4.5  0.9
    100    5   -10.6257    31.9667    16.0089      7   0.00   0.18454   0.31045  -0.20726  4.6  1.2
    101    6    -9.2998   -33.1438    13.0033      7   0.00   0.00000   0.00000   0.00000  4.5  0.9
    102    6    -7.3250    32.3869    10.1382      7   0.00   0.00000   0.00000   0.00000  4.5  0.9
    103    6    -9.3938    31.3632     6.8080      7   0.00   0.00000   0.00000   0.00000  4.5  0.9
    104    6   -12.6383    29.8604     4.6555      7   0.00   0.00000   0.00000   0.00000  4.5  0.9
    105    6   -16.0457    28.4473     2.8745      7   0.00   0.00000   0.00000   0.00000  4.5  0.9
    106    2    20.0667    10.9686   -19.3517      8   0.70   0.00000   0.00000   0.00000  5.4  1.1
    107    3    20.3218    15.3714   -20.4613      8  -0.70   0.00000   0.00000   0.00000  5.2  1.2
    108    4    19.7145    18.3609   -17.1777      8   0.00   0.25404  -0.13108  -0.17102  4.6  1.2
    109    5    15.3116    18.7148   -16.3328      8   0.00   0.26849   0.16176   0.27410  4.6  1.2
    110    6    12.3764    21.4917   -14.9671      8   0.00   0.00000   0.00000   0.00000  4.5  0.9
    111    6    10.3121    21.5732   -11.5114      8   0.00   0.00000   0.00000   0.00000  4.5  0.9
    112    6    10.8764    21.6382    -7.6394      8   0.00   0.00000   0.00000   0.00000  4.5  0.9
    113    6    12.9811    21.2157    -4.1390      8   0.00   0.00000   0.00000   0.00000  4.5  0.9
    114    6    15.0217    20.0183    -1.0061      8   0.00   0.00000   0.00000   0.00000  4.5  0.9
    115    5    21.1828    15.8738   -13.6322      8   0.00   0.26780   0.09979   0.30284  4.6  1.2
    116    6    21.6239    15.7068    -9.4011      8   0.00   0.00000   0.00000   0.00000  4.5  0.9
    117    6    20.8781    14.4674    -5.7450      8   0.00   0.00000   0.00000   0.00000  4.5  0.9
    118    6    23.5830    11.4223    -5.8069      8   0.00   0.00000   0.00000   0.00000  4.5  0.9
    119    6    27.3093    10.4854    -6.6042      8   0.00   0.00000   0.00000   0.00000  4.5  0.9
    120    6    31.2911     9.5605    -6.4029      8   0.00   0.00000   0.00000   0.00000  4.5  0.9
    121    2    26.3265   -16.7261    19.2782      9   0.70   0.00000   0.00000   0.00000  5.4  1.1
    122    3    28.1677   -12.3722    19.7255      9  -0.70   0.00000   0.00000   0.00000  5.2  1.2
    123    4    28.8232   -11.1283    15.6839      9   0.00   0.01535  -0.31483   0.10778  4.6  1.2
    124    5    32.9919   -10.6344    13.9971      9   0.00  -0.15406   0.01599  -0.38652  4.6  1.2
    125    6    33.5025    -7.3567    11.0100      9   0.00   0.00000   0.00000   0.00000  4.5  0.9
    126    6    32.0765    -6.3003     7.3881      9   0.00   0.00000   0.00000   0.00000  4.5  0.9
    127    6   -33.3752    -9.0783     5.8646      9   0.00   0.00000   0.00000   0.00000  4.5  0.9
    128    6   -31.8751   -12.7628     6.5763      9   0.00   0.00000   0.00000   0.00000  4.5  0.9
    129    6   -29.9185   -16.3279     6.7236      9   0.00   0.00000   0.00000   0.00000  4.5  0.9
    130    5    29.2653   -13.9621    12.2262      9   0.00  -0.12284  -0.35404  -0.18153  4.6  1.2
    131    6    31.8653   -14.1472     8.6402      9   0.00   0.00000   0.00000   0.00000  4.5  0.9
    132    6    33.0237   -15.8333     4.9971      9   0.00   0.00000   0.00000   0.00000  4.5  0.9
    133    6    32.2453   -19.3841     3.5588      9   0.00   0.00000   0.00000   0.00000  4.5  0.9
    134    6    30.7697   -22.9957     4.6535      9   0.00   0.00000   0.00000   0.00000  4.5  0.9
    135    6    32.2932   -23.8052     8.2452      9   0.00   0.00000   0.00000   0.00000  4.5  0.9
    136    2     8.9770   -31.9940   -22.2663     10   0.70   0.00000   0.00000   0.00000  5.4  1.1
    137    3    11.5246   -28.4308   -21.4560     10  -0.70   0.00000   0.00000   0.00000  5.2  1.2
    138    4    11.0981   -27.8867   -16.9913     10   0.00  -0.18120  -0.27878  -0.02037  4.6  1.2
    139    5     8.9989   -29.8803   -13.4681     10   0.00  -0.28044  -0.16983   0.25671  4.6  1.2
    140    6    10.4152   -31.5463    -9.5892     10   0.00   0.00000   0.00000   0.00000  4.5  0.9
    141    6    13.0873   -31.3420    -6.5441     10   0.00   0.00000   0.00000   0.00000  4.5  0.9
    142    6    13.2164   -28.3758    -3.7929     10   0.00   0.00000   0.00000   0.00000  4.5  0.9
    143    6    14.4533   -26.1004    -0.6158     10   0.00   0.00000   0.00000   0.00000  4.5  0.9
    144    6    14.5954   -22.7506     1.7770     10   0.00   0.00000   0.00000   0.00000  4.5  0.9
    145    5     6.7095   -26.9225   -16.9863     10   0.00  -0.32985  -0.25414   0.00082  4.6  1.2
    146    6     3.7216   -27.2951   -13.7771     10   0.00   0.00000   0.00000   0.00000  4.5  0.9
    147    6     2.0251   -26.3489   -10.0922     10   0.00   0.00000   0.00000   0.00000  4.5  0.9
    148    6     4.5049   -25.7101    -6.5987     10   0.00   0.00000   0.00000   0.00000  4.5  0.9
    149    6     3.4338   -27.4736    -3.2296     10   0.00   0.00000   0.00000   0.00000  4.5  0.9
    150    6     1.7208   -29.1527     0.3346     10   0.00   0.00000   0.00000   0.00000  4.5  0.9
    151    2   -29.8846   -28.4872    19.6095     11   0.70   0.00000   0.00000   0.00000  5.4  1.1
    152    3   -29.1868   -32.7974    18.7470     11  -0.70   0.00000   0.00000   0.00000  5.2  1.2
    153    4   -26.3372    32.8473    16.0996     11   0.00  -0.22174  -0.05930   0.24142  4.6  1.2
    154    5   -26.0493   -31.5399    13.1359     11   0.00  -0.35582  -0.16356   0.14152  4.6  1.2
    155    6   -28.0117   -31.6794     9.2124     11   0.00   0.00000   0.00000   0.00000  4.5  0.9
    156    6   -31.2455    33.8480     9.6074     11   0.00   0.00000   0.00000   0.00000  4.5  0.9
    157    6    33.1919   -32.7105    10.9067     11   0.00   0.00000   0.00000   0.00000  4.5  0.9
    158    6    30.0595   -30.1635    11.1782     11   0.00   0.00000   0.00000   0.00000  4.5  0.9
    159    6    26.5880   -30.5345    13.2271     11   0.00   0.00000   0.00000   0.00000  4.5  0.9
    160    5   -27.6030    32.2421    11.9294     11   0.00   0.32962   0.23532  -0.09679  4.6  1.2
    161    6   -26.8646    32.4865     7.5998     11   0.00   0.00000   0.00000   0.00000  4.5  0.9
    162    6   -26.9634    30.7290     3.9500     11   0.00   0.00000   0.00000   0.00000  4.5  0.9
    163    6   -25.0060    31.9731     0.5341     11   0.00   0.00000   0.00000   0.00000  4.5  0.9
    164    6   -22.0855    31.9224    -2.1851     11   0.00   0.00000   0.00000   0.00000  4.5  0.9
    165    6   -18.7819    29.8429    -0.6870     11   0.00   0.00000   0.00000   0.00000  4.5  0.9
    166    2   -22.0837   -25.5710   -21.7187     12   0.70   0.00000   0.00000   0.00000  5.4  1.1
    167    3   -23.5834   -22.8798   -18.3787     12  -0.70   0.00000   0.00000   0.00000  5.2  1.2
    168    4   -24.3856   -21.6955   -14.1621     12   0.00  -0.00590  -0.03142  -0.33158  4.6  1.2
    169    5   -23.3880   -17.8691   -12.2181     12   0.00   0.24900   0.14638   0.29993  4.6  1.2
    170    6   -25.3802   -17.6899    -8.4683     12   0.00   0.00000   0.00000   0.00000  4.5  0.9
    171    6   -29.2997   -18.3966    -7.1499     12   0.00   0.00000   0.00000   0.00000  4.5  0.9
    172    6   -30.7720   -22.0516    -7.7301     12   0.00   0.00000   0.00000   0.00000  4.5  0.9
    173    6   -31.3572   -25.6544    -9.4897     12   0.00   0.00000   0.00000   0.00000  4.5  0.9
    174    6    33.8003   -28.2412   -10.2812     12   0.00   0.00000   0.00000   0.00000  4.5  0.9
    175    5   -24.4313   -25.7151   -12.3073     12   0.00   0.32621   0.24331   0.08818  4.6  1.2
    176    6   -21.5340   -27.9450   -10.1234     12   0.00   0.00000   0.00000   0.00000  4.5  0.9
    177    6   -18.6200   -25.6220    -8.4709     12   0.00   0.00000   0.00000   0.00000  4.5  0.9
    178    6   -19.0225   -23.9613    -4.8099     12   0.00   0.00000   0.00000   0.00000  4.5  0.9
    179    6   -17.4932   -21.3307    -1.7574     12   0.00   0.00000   0.00000   0.00000  4.5  0.9
    180    6   -18.8719   -18.2333     0.4741     12   0.00   0.00000   0.00000   0.00000  4.5  0.9
    181    2   -23.6007    -5.8998    19.9073     13   0.70   0.00000   0.00000   0.00000  5.4  1.1
    182    3   -22.8105    -9.8477    17.6168     13  -0.70   0.00000   0.00000   0.00000  5.2  1.2
    183    4   -23.3281   -13.3388    15.0022     13   0.00   0.01085   0.22099   0.24902  4.6  1.2
    184    5   -25.3884   -11.1919    11.4730     13   0.00   0.30069   0.22557   0.17914  4.6  1.2
    185    6   -27.7229    -7.5794    11.1780     13   0.00   0.00000   0.00000   0.00000  4.5  0.9
    186    6   -30.5088    -5.6615     9.1317     13   0.00   0.00000   0.00000   0.00000  4.5  0.9
    187    6   -29.5385    -1.5974     9.0924     13   0.00   0.00000   0.00000   0.00000  4.5  0.9
    188    6   -28.9042     2.1431    10.7322     13   0.00   0.00000   0.00000   0.00000  4.5  0.9
    189    6   -28.8005     5.0294    13.7203     13   0.00   0.00000   0.00000   0.00000  4.5  0.9
    190    5   -21.7084   -14.2420    10.8687     13   0.00  -0.30286   0.27991   0.05760  4.6  1.2
    191    6   -22.3234   -11.0135     7.9168     13   0.00   0.00000   0.00000   0.00000  4.5  0.9
    192    6   -23.0308    -9.7777     3.8237     13   0.00   0.00000   0.00000   0.00000  4.5  0.9
    193    6   -25.7695    -8.6086     1.0431     13   0.00   0.00000   0.00000   0.00000  4.5  0.9
    194    6   -29.1422    -8.7392    -1.0055     13   0.00   0.00000   0.00000   0.00000  4.5  0.9
    195    6   -32.7068    -7.9740    -2.8542     13   0.00   0.00000   0.00000   0.00000  4.5  0.9
    196    2    28.6239    30.1939   -19.8129     14   0.70   0.00000   0.00000   0.00000  5.4  1.1
    197    3    29.9016   -33.7245   -17.8249     14  -0.70   0.00000   0.00000   0.00000  5.2  1.2
    198    4    33.4324    34.0233   -14.7224     14   0.00  -0.26970   0.00778  -0.19537  4.6  1.2
    199    5   -32.9045   -33.5075   -10.6355     14   0.00  -0.20900   0.33858   0.12277  4.6  1.2
    200    6   -30.5184   -30.8848    -8.0626     14   0.00   0.00000   0.00000   0.00000  4.5  0.9
    201    6   -26.9067   -31.0127    -6.1009     14   0.00   0.00000   0.00000   0.00000  4.5  0.9
    202    6   -25.9742   -29.2063    -2.6015     14   0.00   0.00000   0.00000   0.00000  4.5  0.9
    203    6   -25.3752   -26.4298     0.5342     14   0.00   0.00000   0.00000   0.00000  4.5  0.9
    204    6   -25.1295   -23.4914     3.3738     14   0.00   0.00000   0.00000   0.00000  4.5  0.9
    205    5   -32.0288   -30.1636   -14.4043     14   0.00   0.28442   0.14571  -0.26694  4.6  1.2
    206    6   -28.7582   -28.6139   -11.6741     14   0.00   0.00000   0.00000   0.00000  4.5  0.9
    207    6   -26.8438   -26.9633    -8.3309     14   0.00   0.00000   0.00000   0.00000  4.5  0.9
    208    6   -29.6516   -27.3336    -5.1571     14   0.00   0.00000   0.00000   0.00000  4.5  0.9
    209    6   -29.8232   -27.3571    -1.0691     14   0.00   0.00000   0.00000   0.00000  4.5  0.9
    210    6   -30.0408   -24.3238     1.7493     14   0.00   0.00000   0.00000   0.00000  4.5  0.9
    211    2    20.4402   -22.1641    16.1614     15   0.70   0.00000   0.00000   0.00000  5.4  1.1
    212    3    16.1097   -22.2070    16.8140     15  -0.70   0.00000   0.00000   0.00000  5.2  1.2
    213    4    14.7624   -17.8448    16.7215     15   0.00   0.30109   0.00030   0.14252  4.6  1.2
    214    5    17.0255   -18.6420    12.9955     15   0.00  -0.02164   0.41162  -0.05908  4.6  1.2
    215    6    18.2429   -16.9823     9.4519     15   0.00   0.00000   0.00000   0.00000  4.5  0.9
    216    6    20.3824   -17.9604     5.9884     15   0.00   0.00000   0.00000   0.00000  4.5  0.9
    217    6    24.2798   -19.5213     6.6849     15   0.00   0.00000   0.00000   0.00000  4.5  0.9
    218    6    27.5799   -19.5458     3.9322     15   0.00   0.00000   0.00000   0.00000  4.5  0.9
    219    6    29.4884   -17.8691     0.5578     15   0.00   0.00000   0.00000   0.00000  4.5  0.9
    220    5    15.9924   -14.1710    14.6502     15   0.00   0.09055   0.38257  -0.13723  4.6  1.2
    221    6    14.4783   -11.0568    12.1801     15   0.00   0.00000   0.00000   0.00000  4.5  0.9
    222    6    16.1381   -10.4818     8.6220     15   0.00   0.00000   0.00000   0.00000  4.5  0.9
    223    6    13.9487    -9.3611     5.3772     15   0.00   0.00000   0.00000   0.00000  4.5  0.9
    224    6    10.0632    -8.9569     3.9763     15   0.00   0.00000   0.00000   0.00000  4.5  0.9
    225    6     8.5737    -7.7488     0.3412     15   0.00   0.00000   0.00000   0.00000  4.5  0.9
    226    2     8.3714    13.6915   -22.4446     16   0.70   0.00000   0.00000   0.00000  5.4  1.1
    227    3     6.0630    11.0940   -19.3342     16  -0.70   0.00000   0.00000   0.00000  5.2  1.2
    228    4     7.4785     8.5240   -16.0008     16   0.00  -0.29653   0.14654  -0.03958  4.6  1.2
    229    5     8.1622    12.8392   -14.8331     16   0.00   0.26696  -0.08082   0.30918  4.6  1.2
    230    6     9.1359    15.6771   -11.7445     16   0.00   0.00000   0.00000   0.00000  4.5  0.9
    231    6     7.3784    18.8522    -9.8099     16   0.00   0.00000   0.00000   0.00000  4.5  0.9
    232    6     8.2339    18.8240    -5.9190     16   0.00   0.00000   0.00000   0.00000  4.5  0.9
    233    6    11.1619    16.8352    -3.6389     16   0.00   0.00000   0.00000   0.00000  4.5  0.9
    234    6    14.1762    15.7046    -0.9101     16   0.00   0.00000   0.00000   0.00000  4.5  0.9
    235    5     5.5484     8.6284   -12.1563     16   0.00   0.32639  -0.08384   0.24460  4.6  1.2
    236    6     7.2264    11.5903    -9.5587     16   0.00   0.00000   0.00000   0.00000  4.5  0.9
    237    6     9.6334    14.1066    -7.4895     16   0.00   0.00000   0.00000   0.00000  4.5  0.9
    238    6    10.1358    11.9534    -3.8551     16   0.00   0.00000   0.00000   0.00000  4.5  0.9
    239    6    11.7048    11.7758    -0.3053     16   0.00   0.00000   0.00000   0.00000  4.5  0.9
    240    6    10.1833    11.7011     3.4983     16   0.00   0.00000   0.00000   0.00000  4.5  0.9
    241    2    19.5500    14.4014    16.3439     17   0.70   0.00000   0.00000   0.00000  5.4  1.1
    242    3    23.2105    13.6275    13.8628     17  -0.70   0.00000   0.00000   0.00000  5.2  1.2
    243    4    27.3658    13.8422    15.6272     17   0.00  -0.26617  -0.08991  -0.17899  4.6  1.2
    244    5    30.6982    11.3827    13.5786     17   0.00   0.39878  -0.11911   0.01320  4.6  1.2
    245    6    29.9495    10.7997     9.3732     17   0.00   0.00000   0.00000   0.00000  4.5  0.9
    246    6    31.8373     8.7921     6.3635     17   0.00   0.00000   0.00000   0.00000  4.5  0.9
    247    6    29.0944     6.7123     4.1319     17   0.00   0.00000   0.00000   0.00000  4.5  0.9
    248    6    25.2708     6.7771     2.8306     17   0.00   0.00000   0.00000   0.00000  4.5  0.9
    249    6    22.0722     8.9713     2.1500     17   0.00   0.00000   0.00000   0.00000  4.5  0.9
    250    5    30.0642    16.8041    13.0876     17   0.00   0.32621  -0.00816  -0.25867  4.6  1.2
    251    6    32.6193    18.6005     9.9679     17   0.00   0.00000   0.00000   0.00000  4.5  0.9
    252    6   -32.2369    19.7824     7.7456     17   0.00   0.00000   0.00000   0.00000  4.5  0.9
    253    6   -32.7481    16.8669     5.0054     17   0.00   0.00000   0.00000   0.00000  4.5  0.9
    254    6   -33.1184    14.2520     2.1302     17   0.00   0.00000   0.00000   0.00000  4.5  0.9
    255    6   -32.7018    10.2685     1.4001     17   0.00   0.00000   0.00000   0.00000  4.5  0.9
    256    2    -0.8905   -33.3178   -17.9956     18   0.70   0.00000   0.00000   0.00000  5.4  1.1
    257    3    -4.8106   -31.3718   -16.7072     18  -0.70   0.00000   0.00000   0.00000  5.2  1.2
    258    4    -6.6032   -29.4182   -13.1112     18   0.00   0.32101   0.02323   0.08590  4.6  1.2
    259    5    -3.6666   -26.7428   -11.0727     18   0.00   0.03046   0.26284   0.32153  4.6  1.2
    260    6    -2.2448   -25.1023    -7.3004     18   0.00   0.00000   0.00000   0.00000  4.5  0.9
    261    6    -0.0149   -22.1125    -5.9771     18   0.00   0.00000   0.00000   0.00000  4.5  0.9
    262    6     3.1711   -22.6609    -2.9955     18   0.00   0.00000   0.00000   0.00000  4.5  0.9
    263    6     5.1890   -24.5311     0.1720     18   0.00   0.00000   0.00000   0.00000  4.5  0.9
    264    6     7.5474   -23.6121     3.5635     18   0.00   0.00000   0.00000   0.00000  4.5  0.9
    265    5    -7.8393   -25.0729   -14.1260     18   0.00  -0.03658   0.37711   0.17274  4.6  1.2
    266    6   -11.0439   -22.5971   -12.6910     18   0.00   0.00000   0.00000   0.00000  4.5  0.9
    267    6   -12.7647   -20.1740    -9.7863     18   0.00   0.00000   0.00000   0.00000  4.5  0.9
    268    6   -10.6435   -21.1276    -6.3597     18   0.00   0.00000   0.00000   0.00000  4.5  0.9
    269    6    -7.3437   -21.2467    -3.7039     18   0.00   0.00000   0.00000   0.00000  4.5  0.9
    270    6    -3.7868   -22.9894    -3.3676     18   0.00   0.00000   0.00000   0.00000  4.5  0.9
    271    2    32.5384   -13.5240    18.2260     19   0.70   0.00000   0.00000   0.00000  5.4  1.1
    272    3   -31.1325   -12.4176    18.1836     19  -0.70   0.00000   0.00000   0.00000  5.2  1.2
    273    4   -28.9669   -13.0062    14.2229     19   0.00  -0.28447   0.04560  -0.16724  4.6  1.2
    274    5   -26.6945   -16.8010    14.3622     19   0.00   0.10973   0.13128  -0.37962  4.6  1.2
    275    6   -23.4163   -18.5772    11.6455     19   0.00   0.00000   0.00000   0.00000  4.5  0.9
    276    6   -21.4773   -18.0801     7.9985     19   0.00   0.00000   0.00000   0.00000  4.5  0.9
    277    6   -22.7334   -18.0489     3.9659     19   0.00   0.00000   0.00000   0.00000  4.5  0.9
    278    6   -22.8236   -16.0267     0.3436     19   0.00   0.00000   0.00000   0.00000  4.5  0.9
    279    6   -24.5629   -12.2865    -0.6572     19   0.00   0.00000   0.00000   0.00000  4.5  0.9
    280    5   -31.0140   -11.1819    10.5516     19   0.00   0.28309   0.28643   0.10589  4.6  1.2
    281    6   -28.5769    -9.7250     7.3638     19   0.00   0.00000   0.00000   0.00000  4.5  0.9
    282    6   -25.2010    -7.2059     7.4818     19   0.00   0.00000   0.00000   0.00000  4.5  0.9
    283    6   -22.0546    -4.9288     6.1114     19   0.00   0.00000   0.00000   0.00000  4.5  0.9
    284    6   -20.9566    -2.1467     3.4296     19   0.00   0.00000   0.00000   0.00000  4.5  0.9
    285    6   -21.2363     0.1319     0.0772     19   0.00   0.00000   0.00000   0.00000  4.5  0.9
    286    2    10.1941   -23.1644   -19.4494     20   0.70   0.00000   0.00000   0.00000  5.4  1.1
    287    3     6.1392   -20.9835   -18.9406     20  -0.70   0.00000   0.00000   0.00000  5.2  1.2
    288    4     6.1505   -22.6564   -14.7073     20   0.00   0.28318  -0.00104  -0.17543  4.6  1.2
    289    5    10.2501   -24.5741   -14.0149     20   0.00   0.23718  -0.31355   0.13720  4.6  1.2
    290    6    12.4569   -26.9208   -11.5172     20   0.00   0.00000   0.00000   0.00000  4.5  0.9
    291    6    14.7639   -30.1330   -10.5234     20   0.00   0.00000   0.00000   0.00000  4.5  0.9
    292    6    16.3922   -28.7630    -6.7029     20   0.00   0.00000   0.00000   0.00000  4.5  0.9
    293    6    17.5907   -26.0326    -4.0534     20   0.00   0.00000   0.00000   0.00000  4.5  0.9
    294    6    16.1799   -22.1989    -2.9609     20   0.00   0.00000   0.00000   0.00000  4.5  0.9
    295    5     8.7931   -20.1299   -12.2443     20   0.00   0.06336   0.33259   0.24240  4.6  1.2
    296    6     8.7079   -18.2290    -8.4725     20   0.00   0.00000   0.00000   0.00000  4.5  0.9