LAMMPS 'data.' description - created with Brahms (www.personal.soton.ac.uk/orsi/brahms)

    23520 atoms
     4032 bonds
     4608 angles

        6 atom types
        5 bond types
        5 angle types

        -51.1         51.1      xlo xhi
        -51.1         51.1      ylo yhi
        -45.6         45.6      zlo zhi

Atoms

      1    2    41.0364    48.4098     5.2225      1   0.80   0.00000   0.00000   0.00000  4.9  1.5
      2    3    39.8940   -48.1205     3.9057      1  -0.80   0.00000   0.00000   0.00000  4.9  1.5
      3    4    43.6059   -46.0626     5.5436      1   0.00   0.00361   0.02081   0.41586  4.7  1.1
      4    5    45.7440   -43.0552     2.5768      1   0.00   0.40695   0.06801  -0.31732  4.7  1.1
      5    6    44.7415   -40.6743     0.4743      1   0.00   0.00000   0.00000   0.00000  4.5  0.9
      6    6    47.8963   -38.4074    -2.0988      1   0.00   0.00000   0.00000   0.00000  4.5  0.9
      7    6    48.3837   -35.8862    -4.8725      1   0.00   0.00000   0.00000   0.00000  4.5  0.9
      8    6    49.8960   -33.1031    -4.6463      1   0.00   0.00000   0.00000   0.00000  4.5  0.9
      9    6   -50.9735   -30.0601    -3.9775      1   0.00   0.00000   0.00000   0.00000  4.5  0.9
     10    5    47.2116   -47.6579     4.7176      1   0.00   0.35419   0.04966   0.37816  4.7  1.1
     11    6    50.8742   -48.3491     3.0130      1   0.00   0.00000   0.00000   0.00000  4.5  0.9
     12    6   -49.7970   -47.4562     0.4835      1   0.00   0.00000   0.00000   0.00000  4.5  0.9
     13    6   -48.9348   -43.7620    -0.6941      1   0.00   0.00000   0.00000   0.00000  4.5  0.9
     14    6   -50.6998   -40.7401    -0.3731      1   0.00   0.00000   0.00000   0.00000  4.5  0.9
     15    6    49.9951   -39.9781     2.3263      1   0.00   0.00000   0.00000   0.00000  4.5  0.9
     16    2   -47.0165   -20.5241   -32.1196      2   0.80   0.00000   0.00000   0.00000  4.9  1.5
     17    3   -48.5803   -22.0088   -36.6917      2  -0.80   0.00000   0.00000   0.00000  4.9  1.5
     18    4   -50.4840   -23.8628   -34.0530      2   0.00   0.34825  -0.08163   0.21319  4.7  1.1
     19    5    50.0432   -21.6898   -31.1361      2   0.00  -0.39428   0.28855   0.17945  4.7  1.1
     20    6    48.7835   -23.6543   -28.7781      2   0.00   0.00000   0.00000   0.00000  4.5  0.9
     21    6    48.4213   -26.6378   -27.9773      2   0.00   0.00000   0.00000   0.00000  4.5  0.9
     22    6    49.0673   -29.8145   -29.8288      2   0.00   0.00000   0.00000   0.00000  4.5  0.9
     23    6    49.9255   -33.1260   -28.1893      2   0.00   0.00000   0.00000   0.00000  4.5  0.9
     24    6   -50.0846   -36.1268   -26.7566      2   0.00   0.00000   0.00000   0.00000  4.5  0.9
     25    5   -49.4126   -26.8517   -33.0846      2   0.00   0.49059   0.16529  -0.05406  4.7  1.1
     26    6   -47.6032   -26.6103   -30.6738      2   0.00   0.00000   0.00000   0.00000  4.5  0.9
     27    6   -43.8951   -26.2211   -30.9822      2   0.00   0.00000   0.00000   0.00000  4.5  0.9
     28    6   -42.6206   -23.1303   -31.2274      2   0.00   0.00000   0.00000   0.00000  4.5  0.9
     29    6   -39.4279   -19.8222   -30.9414      2   0.00   0.00000   0.00000   0.00000  4.5  0.9
     30    6   -40.0657   -16.5323   -30.8523      2   0.00   0.00000   0.00000   0.00000  4.5  0.9
     31    2   -39.2704    34.9882    32.6034      3   0.80   0.00000   0.00000   0.00000  4.9  1.5
     32    3   -34.2427    32.9463    28.8107      3  -0.80   0.00000   0.00000   0.00000  4.9  1.5
     33    4   -30.0547    31.9222    29.9520      3   0.00   0.09920  -0.00637   0.40436  4.7  1.1
     34    5   -30.3433    28.3187    32.6587      3   0.00  -0.19374   0.20795   0.43606  4.7  1.1
     35    6   -28.1713    27.6503    35.6709      3   0.00   0.00000   0.00000   0.00000  4.5  0.9
     36    6   -29.5920    29.0064    39.3091      3   0.00   0.00000   0.00000   0.00000  4.5  0.9
     37    6   -30.9697    32.4803    40.6179      3   0.00   0.00000   0.00000   0.00000  4.5  0.9
     38    6   -33.1929    33.5770    41.3267      3   0.00   0.00000   0.00000   0.00000  4.5  0.9
     39    6   -35.2739    36.6421    42.2114      3   0.00   0.00000   0.00000   0.00000  4.5  0.9
     40    5   -26.5392    31.2036    30.1940      3   0.00   0.28285   0.39586   0.18497  4.7  1.1
     41    6   -23.4777    33.0429    29.5792      3   0.00   0.00000   0.00000   0.00000  4.5  0.9
     42    6   -20.5709    34.7543    29.5442      3   0.00   0.00000   0.00000   0.00000  4.5  0.9
     43    6   -19.1864    33.6509    27.1584      3   0.00   0.00000   0.00000   0.00000  4.5  0.9
     44    6   -20.6755    30.8881    25.1309      3   0.00   0.00000   0.00000   0.00000  4.5  0.9
     45    6   -21.9761    27.7670    24.3607      3   0.00   0.00000   0.00000   0.00000  4.5  0.9
     46    2   -17.0349    33.3743     4.5841      4   0.80   0.00000   0.00000   0.00000  4.9  1.5
     47    3   -20.6417    31.1411     1.1810      4  -0.80   0.00000   0.00000   0.00000  4.9  1.5
     48    4   -24.0164    31.8872     4.0558      4   0.00  -0.33743   0.10567  -0.21992  4.7  1.1
     49    5   -24.9364    35.3447     5.4367      4   0.00  -0.41566  -0.30485   0.07220  4.7  1.1
     50    6   -26.9844    37.5716     4.1156      4   0.00   0.00000   0.00000   0.00000  4.5  0.9
     51    6   -29.0952    38.9003     2.3173      4   0.00   0.00000   0.00000   0.00000  4.5  0.9
     52    6   -28.7020    42.4140     2.7595      4   0.00   0.00000   0.00000   0.00000  4.5  0.9
     53    6   -29.2561    45.7259     0.9134      4   0.00   0.00000   0.00000   0.00000  4.5  0.9
     54    6   -31.7721    48.0684    -0.8663      4   0.00   0.00000   0.00000   0.00000  4.5  0.9
     55    5   -27.5431    31.7139     5.9081      4   0.00  -0.47921  -0.14446  -0.14287  4.7  1.1
     56    6   -30.4660    35.0635     5.4458      4   0.00   0.00000   0.00000   0.00000  4.5  0.9
     57    6   -33.6348    36.1043     3.4992      4   0.00   0.00000   0.00000   0.00000  4.5  0.9
     58    6   -35.6816    34.9457     6.3729      4   0.00   0.00000   0.00000   0.00000  4.5  0.9
     59    6   -32.2453    34.0755     9.5344      4   0.00   0.00000   0.00000   0.00000  4.5  0.9
     60    6   -32.8542    31.6993    12.0742      4   0.00   0.00000   0.00000   0.00000  4.5  0.9
     61    2   -35.8479   -20.4007    26.6395      5   0.80   0.00000   0.00000   0.00000  4.9  1.5
     62    3   -31.5193   -17.6524    26.7844      5  -0.80   0.00000   0.00000   0.00000  4.9  1.5
     63    4   -30.8824   -19.2800    29.6669      5   0.00  -0.26362   0.12777   0.29592  4.7  1.1
     64    5   -28.9787   -16.9204    32.1743      5   0.00  -0.51699  -0.00287   0.06027  4.7  1.1
     65    6   -29.0494   -15.0493    34.6542      5   0.00   0.00000   0.00000   0.00000  4.5  0.9
     66    6   -29.9973   -13.4511    37.4286      5   0.00   0.00000   0.00000   0.00000  4.5  0.9
     67    6   -32.6240   -15.4101    37.8047      5   0.00   0.00000   0.00000   0.00000  4.5  0.9
     68    6   -34.3455   -16.8101    35.0410      5   0.00   0.00000   0.00000   0.00000  4.5  0.9
     69    6   -36.3848   -19.1735    34.3934      5   0.00   0.00000   0.00000   0.00000  4.5  0.9
     70    5   -31.4794   -22.1840    29.3688      5   0.00  -0.49436   0.15648   0.04518  4.7  1.1
     71    6   -32.5201   -25.5738    26.1319      5   0.00   0.00000   0.00000   0.00000  4.5  0.9
     72    6   -35.0507   -28.1016    24.1189      5   0.00   0.00000   0.00000   0.00000  4.5  0.9
     73    6   -33.5260   -30.1769    21.2142      5   0.00   0.00000   0.00000   0.00000  4.5  0.9
     74    6   -33.5299   -33.3233    19.8033      5   0.00   0.00000   0.00000   0.00000  4.5  0.9
     75    6   -34.2802   -36.7709    19.7312      5   0.00   0.00000   0.00000   0.00000  4.5  0.9
     76    2   -32.7164   -45.9057   -12.8752      6   0.80   0.00000   0.00000   0.00000  4.9  1.5
     77    3   -27.9397   -46.9928   -10.9175      6  -0.80   0.00000   0.00000   0.00000  4.9  1.5
     78    4   -24.2841   -43.7825   -11.5918      6   0.00  -0.41569  -0.00571  -0.02360  4.7  1.1
     79    5   -21.0605   -44.3569   -12.5281      6   0.00  -0.13908  -0.47670  -0.15599  4.7  1.1
     80    6   -18.7234   -44.5698   -16.2445      6   0.00   0.00000   0.00000   0.00000  4.5  0.9
     81    6   -17.1283   -42.2155   -18.5883      6   0.00   0.00000   0.00000   0.00000  4.5  0.9
     82    6   -17.8680   -38.6926   -17.6577      6   0.00   0.00000   0.00000   0.00000  4.5  0.9
     83    6   -20.9443   -36.0372   -16.6219      6   0.00   0.00000   0.00000   0.00000  4.5  0.9
     84    6   -23.9915   -34.0121   -16.3687      6   0.00   0.00000   0.00000   0.00000  4.5  0.9
     85    5   -25.7331   -41.4113    -9.4597      6   0.00  -0.41566  -0.17435  -0.26029  4.7  1.1
     86    6   -27.6766   -39.1985    -7.5423      6   0.00   0.00000   0.00000   0.00000  4.5  0.9
     87    6   -29.0001   -37.7217    -4.2596      6   0.00   0.00000   0.00000   0.00000  4.5  0.9
     88    6   -27.3725   -37.7324    -1.4226      6   0.00   0.00000   0.00000   0.00000  4.5  0.9
     89    6   -25.5513   -36.0904     1.0148      6   0.00   0.00000   0.00000   0.00000  4.5  0.9
     90    6   -25.2610   -35.9200     4.9239      6   0.00   0.00000   0.00000   0.00000  4.5  0.9
     91    2   -44.6641   -39.6765    17.0583      7   0.80   0.00000   0.00000   0.00000  4.9  1.5
     92    3   -48.3965   -37.3876    13.0730      7  -0.80   0.00000   0.00000   0.00000  4.9  1.5
     93    4   -49.5090   -39.7854    10.6423      7   0.00   0.09022  -0.27869   0.29594  4.7  1.1
     94    5    49.5422   -43.1324    10.6657      7   0.00  -0.43098  -0.06211   0.28517  4.7  1.1
     95    6    46.1407   -45.5888    12.2000      7   0.00   0.00000   0.00000   0.00000  4.5  0.9
     96    6    42.1163   -44.9648    11.2526      7   0.00   0.00000   0.00000   0.00000  4.5  0.9
     97    6    40.8019   -42.7563     8.1474      7   0.00   0.00000   0.00000   0.00000  4.5  0.9
     98    6    41.9784   -40.5041     5.7593      7   0.00   0.00000   0.00000   0.00000  4.5  0.9
     99    6    43.2006   -37.5413     4.3009      7   0.00   0.00000   0.00000   0.00000  4.5  0.9
    100    5   -49.9812   -41.3819     7.2919      7   0.00  -0.18248  -0.43165  -0.22650  4.7  1.1
    101    6   -47.6666   -41.4665     3.6965      7   0.00   0.00000   0.00000   0.00000  4.5  0.9
    102    6   -46.3611   -39.6791     1.2183      7   0.00   0.00000   0.00000   0.00000  4.5  0.9
    103    6   -46.0378   -40.4666    -3.0311      7   0.00   0.00000   0.00000   0.00000  4.5  0.9
    104    6   -47.0525   -43.2658    -5.6665      7   0.00   0.00000   0.00000   0.00000  4.5  0.9
    105    6   -48.8065   -47.0039    -5.7824      7   0.00   0.00000   0.00000   0.00000  4.5  0.9
    106    2   -32.9546   -50.3874    12.8544      8   0.80   0.00000   0.00000   0.00000  4.9  1.5
    107    3   -31.4264   -45.9821    15.0024      8  -0.80   0.00000   0.00000   0.00000  4.9  1.5
    108    4   -34.1822   -43.6811    16.7431      8   0.00   0.33509   0.24618   0.02223  4.7  1.1
    109    5   -33.6762   -44.2480    20.4512      8   0.00   0.17200   0.47428  -0.12803  4.7  1.1
    110    6   -30.5779   -42.7211    22.6514      8   0.00   0.00000   0.00000   0.00000  4.5  0.9
    111    6   -28.4833   -45.0816    24.9596      8   0.00   0.00000   0.00000   0.00000  4.5  0.9
    112    6   -28.8834   -48.3388    25.0931      8   0.00   0.00000   0.00000   0.00000  4.5  0.9
    113    6   -30.7845   -50.3648    24.7410      8   0.00   0.00000   0.00000   0.00000  4.5  0.9
    114    6   -32.2747    49.1796    22.7876      8   0.00   0.00000   0.00000   0.00000  4.5  0.9
    115    5   -36.6048   -40.4410    16.8512      8   0.00  -0.19337   0.48323   0.00372  4.7  1.1
    116    6   -39.5926   -38.8054    15.2387      8   0.00   0.00000   0.00000   0.00000  4.5  0.9
    117    6   -41.8161   -41.3134    12.7296      8   0.00   0.00000   0.00000   0.00000  4.5  0.9
    118    6   -40.3835   -42.9312    10.2392      8   0.00   0.00000   0.00000   0.00000  4.5  0.9
    119    6   -36.5888   -43.9712     7.6960      8   0.00   0.00000   0.00000   0.00000  4.5  0.9
    120    6   -34.5807   -40.9719     6.3979      8   0.00   0.00000   0.00000   0.00000  4.5  0.9
    121    2   -40.5787   -36.2775     2.6086      9   0.80   0.00000   0.00000   0.00000  4.9  1.5
    122    3   -37.7246   -32.0219     3.9150      9  -0.80   0.00000   0.00000   0.00000  4.9  1.5
    123    4   -38.4161   -27.4976     5.0787      9   0.00   0.34525   0.07322  -0.22098  4.7  1.1
    124    5   -36.0281   -23.7960     4.0185      9   0.00   0.42252  -0.27535  -0.12878  4.7  1.1
    125    6   -37.4899   -22.4284     1.4314      9   0.00   0.00000   0.00000   0.00000  4.5  0.9
    126    6   -39.6848   -23.4122    -1.6369      9   0.00   0.00000   0.00000   0.00000  4.5  0.9
    127    6   -42.8992   -23.8643     0.4282      9   0.00   0.00000   0.00000   0.00000  4.5  0.9
    128    6   -45.4988   -26.6480     0.8003      9   0.00   0.00000   0.00000   0.00000  4.5  0.9
    129    6   -45.8011   -29.8527     0.5445      9   0.00   0.00000   0.00000   0.00000  4.5  0.9
    130    5   -37.2466   -25.2976     9.2386      9   0.00  -0.36854   0.18478  -0.31773  4.7  1.1
    131    6   -34.4258   -22.3321     9.0248      9   0.00   0.00000   0.00000   0.00000  4.5  0.9
    132    6   -32.5773   -20.1434     5.4390      9   0.00   0.00000   0.00000   0.00000  4.5  0.9
    133    6   -35.7849   -18.3060     5.7408      9   0.00   0.00000   0.00000   0.00000  4.5  0.9
    134    6   -37.7451   -15.5851     7.6105      9   0.00   0.00000   0.00000   0.00000  4.5  0.9
    135    6   -40.6524   -16.1660    10.1925      9   0.00   0.00000   0.00000   0.00000  4.5  0.9
    136    2     7.2931    40.4417   -10.7054     10   0.80   0.00000   0.00000   0.00000  4.9  1.5
    137    3     4.5103    42.8591   -14.9133     10  -0.80   0.00000   0.00000   0.00000  4.9  1.5
    138    4     2.6088    45.5162   -13.4141     10   0.00   0.02431   0.09718  -0.40417  4.7  1.1
    139    5    -0.2228    46.4216   -10.3204     10   0.00   0.27339   0.23362   0.37630  4.7  1.1
    140    6     1.7889    45.0960    -6.7982     10   0.00   0.00000   0.00000   0.00000  4.5  0.9
    141    6     4.9593    47.4519    -4.7952     10   0.00   0.00000   0.00000   0.00000  4.5  0.9
    142    6     3.4025    46.7552    -2.2071     10   0.00   0.00000   0.00000   0.00000  4.5  0.9
    143    6     2.2222    43.6605    -2.1335     10   0.00   0.00000   0.00000   0.00000  4.5  0.9
    144    6    -1.4332    42.1378    -2.4083     10   0.00   0.00000   0.00000   0.00000  4.5  0.9
    145    5     2.3815    50.0599   -12.4817     10   0.00  -0.07585   0.48273  -0.17928  4.7  1.1
    146    6     4.7935   -50.6757   -12.5739     10   0.00   0.00000   0.00000   0.00000  4.5  0.9
    147    6     7.9968    49.5652   -11.6258     10   0.00   0.00000   0.00000   0.00000  4.5  0.9
    148    6     9.3644   -50.1813   -10.7716     10   0.00   0.00000   0.00000   0.00000  4.5  0.9
    149    6     9.3918   -48.6973    -7.9792     10   0.00   0.00000   0.00000   0.00000  4.5  0.9
    150    6     9.9413   -47.4399    -4.5702     10   0.00   0.00000   0.00000   0.00000  4.5  0.9
    151    2   -21.3228    43.3573   -37.2652     11   0.80   0.00000   0.00000   0.00000  4.9  1.5
    152    3   -17.1863    43.5106   -41.6983     11  -0.80   0.00000   0.00000   0.00000  4.9  1.5
    153    4   -19.4251    41.2005   -44.3636     11   0.00   0.33996  -0.21944  -0.09831  4.7  1.1
    154    5   -22.1175    38.4534   -44.0555     11   0.00  -0.04924  -0.51042  -0.08927  4.7  1.1
    155    6   -25.9486    36.4506   -42.4429     11   0.00   0.00000   0.00000   0.00000  4.5  0.9
    156    6   -29.3579    36.5313   -40.2240     11   0.00   0.00000   0.00000   0.00000  4.5  0.9
    157    6   -31.1992    39.1276   -38.4883     11   0.00   0.00000   0.00000   0.00000  4.5  0.9
    158    6   -31.4268    42.9920   -37.7255     11   0.00   0.00000   0.00000   0.00000  4.5  0.9
    159    6   -33.2115    46.2025   -37.2607     11   0.00   0.00000   0.00000   0.00000  4.5  0.9
    160    5   -18.5276    38.6164    44.0118     11   0.00  -0.03019  -0.39381   0.33900  4.7  1.1
    161    6   -19.1291    36.8824    41.3663     11   0.00   0.00000   0.00000   0.00000  4.5  0.9
    162    6   -21.1294    34.9590    39.5329     11   0.00   0.00000   0.00000   0.00000  4.5  0.9
    163    6   -24.9424    34.0298    40.9529     11   0.00   0.00000   0.00000   0.00000  4.5  0.9
    164    6   -27.4581    36.3296    42.0037     11   0.00   0.00000   0.00000   0.00000  4.5  0.9
    165    6   -30.5563    36.7531    43.1519     11   0.00   0.00000   0.00000   0.00000  4.5  0.9
    166    2   -15.2254    43.9090    13.4352     12   0.80   0.00000   0.00000   0.00000  4.9  1.5
    167    3   -15.2345    39.7991     9.6869     12  -0.80   0.00000   0.00000   0.00000  4.9  1.5
    168    4   -16.0869    41.4771     6.8579     12   0.00  -0.38686   0.07867   0.13243  4.7  1.1
    169    5   -18.9444    41.2209     3.8870     12   0.00  -0.27072   0.42953   0.11461  4.7  1.1
    170    6   -18.2313    42.3449     0.1157     12   0.00   0.00000   0.00000   0.00000  4.5  0.9
    171    6   -20.5260    42.8483    -3.4120     12   0.00   0.00000   0.00000   0.00000  4.5  0.9
    172    6   -24.6203    41.1263    -4.2790     12   0.00   0.00000   0.00000   0.00000  4.5  0.9
    173    6   -27.5387    40.8420    -5.2772     12   0.00   0.00000   0.00000   0.00000  4.5  0.9
    174    6   -29.4884    41.2115    -9.5708     12   0.00   0.00000   0.00000   0.00000  4.5  0.9
    175    5   -15.4801    44.7535     4.3840     12   0.00  -0.03647   0.42756  -0.29458  4.7  1.1
    176    6   -15.3038    46.2614     1.0081     12   0.00   0.00000   0.00000   0.00000  4.5  0.9
    177    6   -16.1981    46.7095    -2.6020     12   0.00   0.00000   0.00000   0.00000  4.5  0.9
    178    6   -15.0255    50.4420    -3.7409     12   0.00   0.00000   0.00000   0.00000  4.5  0.9
    179    6   -13.4572   -48.5714    -4.5238     12   0.00   0.00000   0.00000   0.00000  4.5  0.9
    180    6    -9.7081   -47.9731    -3.7294     12   0.00   0.00000   0.00000   0.00000  4.5  0.9
    181    2   -37.5385    45.3081    17.6501     13   0.80   0.00000   0.00000   0.00000  4.9  1.5
    182    3   -37.3865    41.3649    13.4311     13  -0.80   0.00000   0.00000   0.00000  4.9  1.5
    183    4   -36.7027    38.8102    10.2175     13   0.00  -0.06120  -0.36239   0.19574  4.7  1.1
    184    5   -37.1729    35.0882    11.1450     13   0.00  -0.20170  -0.46499   0.11841  4.7  1.1
    185    6   -39.8797    35.1012    11.8402     13   0.00   0.00000   0.00000   0.00000  4.5  0.9
    186    6   -43.5101    34.9739    11.5362     13   0.00   0.00000   0.00000   0.00000  4.5  0.9
    187    6   -45.7631    36.8749     9.4178     13   0.00   0.00000   0.00000   0.00000  4.5  0.9
    188    6   -47.1985    40.1225     6.8543     13   0.00   0.00000   0.00000   0.00000  4.5  0.9
    189    6   -46.8650    42.8029     3.1619     13   0.00   0.00000   0.00000   0.00000  4.5  0.9
    190    5   -34.3606    39.1273     8.4496     13   0.00   0.29192  -0.36054  -0.23603  4.7  1.1
    191    6   -31.8767    39.9929     6.0175     13   0.00   0.00000   0.00000   0.00000  4.5  0.9
    192    6   -28.2275    40.6762     7.4683     13   0.00   0.00000   0.00000   0.00000  4.5  0.9
    193    6   -27.8155    37.2699     8.6678     13   0.00   0.00000   0.00000   0.00000  4.5  0.9
    194    6   -26.4821    34.8252    10.6393     13   0.00   0.00000   0.00000   0.00000  4.5  0.9
    195    6   -24.4811    33.5250    12.9346     13   0.00   0.00000   0.00000   0.00000  4.5  0.9
    196    2     7.4666    41.5560    -1.4493     14   0.80   0.00000   0.00000   0.00000  4.9  1.5
    197    3     8.9524    39.9012    -5.8683     14  -0.80   0.00000   0.00000   0.00000  4.9  1.5
    198    4     9.6634    37.0154    -3.3561     14   0.00  -0.05447   0.25571   0.32409  4.7  1.1
    199    5    12.7121    34.7852    -4.0345     14   0.00  -0.35653  -0.37070  -0.07993  4.7  1.1
    200    6    12.1683    31.1926    -3.5731     14   0.00   0.00000   0.00000   0.00000  4.5  0.9
    201    6    12.1067    27.5232    -4.5219     14   0.00   0.00000   0.00000   0.00000  4.5  0.9
    202    6    10.7254    25.2827    -1.8927     14   0.00   0.00000   0.00000   0.00000  4.5  0.9
    203    6     8.5528    22.4798     0.2929     14   0.00   0.00000   0.00000   0.00000  4.5  0.9
    204    6     6.6289    19.5835    -0.2026     14   0.00   0.00000   0.00000   0.00000  4.5  0.9
    205    5     8.8923    34.4050    -0.7635     14   0.00  -0.18645  -0.22831   0.42899  4.7  1.1
    206    6     7.8169    32.3057     1.5548     14   0.00   0.00000   0.00000   0.00000  4.5  0.9
    207    6     5.3389    30.9812     3.1152     14   0.00   0.00000   0.00000   0.00000  4.5  0.9
    208    6     6.2249    28.3386     6.2539     14   0.00   0.00000   0.00000   0.00000  4.5  0.9
    209    6     4.8113    27.1157     8.7952     14   0.00   0.00000   0.00000   0.00000  4.5  0.9
    210    6     3.2318    26.5808    12.6521     14   0.00   0.00000   0.00000   0.00000  4.5  0.9
    211    2    16.3468   -50.0452    -7.4308     15   0.80   0.00000   0.00000   0.00000  4.9  1.5
    212    3    17.7734    47.5277    -5.7786     15  -0.80   0.00000   0.00000   0.00000  4.9  1.5
    213    4    20.5161    44.5769    -6.9756     15   0.00   0.01537  -0.33028   0.25312  4.7  1.1
    214    5    21.3086    41.9436   -10.4213     15   0.00   0.46803   0.05826  -0.22017  4.7  1.1
    215    6    22.6413    39.4022   -12.9205     15   0.00   0.00000   0.00000   0.00000  4.5  0.9
    216    6    21.9458    39.9785   -16.7142     15   0.00   0.00000   0.00000   0.00000  4.5  0.9
    217    6    18.2472    41.7478   -17.1845     15   0.00   0.00000   0.00000   0.00000  4.5  0.9
    218    6    16.8204    45.2166   -18.2342     15   0.00   0.00000   0.00000   0.00000  4.5  0.9
    219    6    14.5992    46.9831   -20.8988     15   0.00   0.00000   0.00000   0.00000  4.5  0.9
    220    5    24.6724    43.4284    -7.1873     15   0.00   0.18169   0.14110   0.46690  4.7  1.1
    221    6    28.1260    43.6229    -5.6144     15   0.00   0.00000   0.00000   0.00000  4.5  0.9
    222    6    29.4136    42.4406    -3.3851     15   0.00   0.00000   0.00000   0.00000  4.5  0.9
    223    6    29.9855    39.7953    -3.5195     15   0.00   0.00000   0.00000   0.00000  4.5  0.9
    224    6    31.9060    37.2691    -1.9727     15   0.00   0.00000   0.00000   0.00000  4.5  0.9
    225    6    32.7637    33.3835    -0.0987     15   0.00   0.00000   0.00000   0.00000  4.5  0.9
    226    2    -4.3984    49.2082    13.0391     16   0.80   0.00000   0.00000   0.00000  4.9  1.5
    227    3    -2.7900   -50.9833     8.6746     16  -0.80   0.00000   0.00000   0.00000  4.9  1.5
    228    4    -6.7302   -48.9861     6.4096     16   0.00   0.36494  -0.07563  -0.18571  4.7  1.1
    229    5   -10.7731   -48.6211     7.3944     16   0.00  -0.24474   0.16225  -0.42977  4.7  1.1
    230    6   -14.7918   -50.1790     6.2618     16   0.00   0.00000   0.00000   0.00000  4.5  0.9
    231    6   -17.4548    49.2300     7.3663     16   0.00   0.00000   0.00000   0.00000  4.5  0.9
    232    6   -20.4019   -50.8717    10.6040     16   0.00   0.00000   0.00000   0.00000  4.5  0.9
    233    6   -21.5850   -50.6099    13.2738     16   0.00   0.00000   0.00000   0.00000  4.5  0.9
    234    6   -19.7537   -50.7263    17.4751     16   0.00   0.00000   0.00000   0.00000  4.5  0.9
    235    5    -5.3608   -47.6749     2.6365     16   0.00  -0.00235   0.45061  -0.26051  4.7  1.1
    236    6    -4.9718   -50.9694     1.1483     16   0.00   0.00000   0.00000   0.00000  4.5  0.9
    237    6    -6.6127    50.5696    -1.1254     16   0.00   0.00000   0.00000   0.00000  4.5  0.9
    238    6    -4.9033   -50.4458    -4.2231     16   0.00   0.00000   0.00000   0.00000  4.5  0.9
    239    6    -7.2144   -51.0129    -7.0725     16   0.00   0.00000   0.00000   0.00000  4.5  0.9
    240    6   -10.2083    50.8848    -7.6118     16   0.00   0.00000   0.00000   0.00000  4.5  0.9
    241    2    16.0478    19.6658    -7.1344     17   0.80   0.00000   0.00000   0.00000  4.9  1.5
    242    3    14.1694    23.8456    -6.5252     17  -0.80   0.00000   0.00000   0.00000  4.9  1.5
    243    4    15.3937    24.0540    -2.6658     17   0.00  -0.22249   0.33993   0.09130  4.7  1.1
    244    5    14.9957    27.6225     0.6261     17   0.00   0.32258   0.32398   0.24880  4.7  1.1
    245    6    18.1015    27.9402     2.3045     17   0.00   0.00000   0.00000   0.00000  4.5  0.9
    246    6    19.8819    30.0356     2.1220     17   0.00   0.00000   0.00000   0.00000  4.5  0.9
    247    6    20.2450    31.9378     4.8640     17   0.00   0.00000   0.00000   0.00000  4.5  0.9
    248    6    20.2757    33.0401     8.7179     17   0.00   0.00000   0.00000   0.00000  4.5  0.9
    249    6    21.5237    32.2421    12.1126     17   0.00   0.00000   0.00000   0.00000  4.5  0.9
    250    5    18.2075    22.2041     0.1279     17   0.00   0.46180   0.00840   0.23998  4.7  1.1
    251    6    21.3982    22.8390    -1.8770     17   0.00   0.00000   0.00000   0.00000  4.5  0.9
    252    6    22.5369    24.3932    -4.8265     17   0.00   0.00000   0.00000   0.00000  4.5  0.9
    253    6    21.4446    23.8631    -6.9294     17   0.00   0.00000   0.00000   0.00000  4.5  0.9
    254    6    20.3005    22.7550    -9.7078     17   0.00   0.00000   0.00000   0.00000  4.5  0.9
    255    6    22.0803    22.9948   -13.2543     17   0.00   0.00000   0.00000   0.00000  4.5  0.9
    256    2    43.1431   -50.8454    -4.8373     18   0.80   0.00000   0.00000   0.00000  4.9  1.5
    257    3    46.5364    50.6429    -8.8479     18  -0.80   0.00000   0.00000   0.00000  4.9  1.5
    258    4    45.6616   -48.3143   -10.0240     18   0.00   0.00590   0.29814   0.29063  4.7  1.1
    259    5    42.1327   -47.4845   -11.5257     18   0.00  -0.05569   0.20422   0.47552  4.7  1.1
    260    6    41.2326   -43.7136   -14.0390     18   0.00   0.00000   0.00000   0.00000  4.5  0.9
    261    6    37.9839   -41.7751   -14.1194     18   0.00   0.00000   0.00000   0.00000  4.5  0.9
    262    6    35.6704   -42.9188   -12.8115     18   0.00   0.00000   0.00000   0.00000  4.5  0.9
    263    6    33.9999   -44.6947    -9.4172     18   0.00   0.00000   0.00000   0.00000  4.5  0.9
    264    6    30.3036   -46.7799   -10.2988     18   0.00   0.00000   0.00000   0.00000  4.5  0.9
    265    5    46.2455   -46.3911   -14.1724     18   0.00  -0.26244   0.15631   0.42144  4.7  1.1
    266    6    44.7242   -45.0926   -17.7721     18   0.00   0.00000   0.00000   0.00000  4.5  0.9
    267    6    41.0786   -45.8763   -18.6484     18   0.00   0.00000   0.00000   0.00000  4.5  0.9
    268    6    42.0491   -49.4014   -16.3665     18   0.00   0.00000   0.00000   0.00000  4.5  0.9
    269    6    42.1785    49.7518   -14.3313     18   0.00   0.00000   0.00000   0.00000  4.5  0.9
    270    6    38.6323    50.2820   -11.9670     18   0.00   0.00000   0.00000   0.00000  4.5  0.9
    271    2     9.4042    34.8408    10.1343     19   0.80   0.00000   0.00000   0.00000  4.9  1.5
    272    3    12.3097    39.0513    11.1598     19  -0.80   0.00000   0.00000   0.00000  4.9  1.5
    273    4    15.4407    40.5281     8.8122     19   0.00  -0.36633   0.18071   0.08083  4.7  1.1
    274    5    14.2932    42.7954     6.2945     19   0.00   0.11813   0.25091   0.44047  4.7  1.1
    275    6    13.6699    45.8342     4.5885     19   0.00   0.00000   0.00000   0.00000  4.5  0.9
    276    6    12.6178    48.8823     6.2591     19   0.00   0.00000   0.00000   0.00000  4.5  0.9
    277    6    14.8725   -50.1351     7.6503     19   0.00   0.00000   0.00000   0.00000  4.5  0.9
    278    6    15.3078   -46.3502     7.7419     19   0.00   0.00000   0.00000   0.00000  4.5  0.9
    279    6    16.4976   -42.9214     6.3632     19   0.00   0.00000   0.00000   0.00000  4.5  0.9
    280    5    18.8431    43.0570     8.9339     19   0.00  -0.12262  -0.04238   0.50407  4.7  1.1
    281    6    21.2463    44.9321    11.3820     19   0.00   0.00000   0.00000   0.00000  4.5  0.9
    282    6    23.3249    44.7797    14.8977     19   0.00   0.00000   0.00000   0.00000  4.5  0.9
    283    6    20.7053    44.4062    17.6639     19   0.00   0.00000   0.00000   0.00000  4.5  0.9
    284    6    20.8227    42.1650    18.3339     19   0.00   0.00000   0.00000   0.00000  4.5  0.9
    285    6    20.6325    38.5277    17.4544     19   0.00   0.00000   0.00000   0.00000  4.5  0.9
    286    2    32.8622    42.9472   -24.4401     20   0.80   0.00000   0.00000   0.00000  4.9  1.5
    287    3    36.4797    41.3274   -19.3356     20  -0.80   0.00000   0.00000   0.00000  4.9  1.5
    288    4    33.4918    40.8005   -16.4953     20   0.00  -0.19734  -0.25499  -0.26349  4.7  1.1
    289    5    31.3088    43.3651   -13.9036     20   0.00  -0.47752  -0.06389  -0.19700  4.7  1.1
    290    6    28.4932    46.9960   -13.3441     20   0.00   0.00000   0.00000   0.00000  4.5  0.9
    291    6    27.7670   -50.7170   -13.0194     20   0.00   0.00000   0.00000   0.00000  4.5  0.9
    292    6    26.0270   -47.8774   -12.2613     20   0.00   0.00000   0.00000   0.00000  4.5  0.9
    293    6    25.6407   -44.6142   -12.7085     20   0.00   0.00000   0.00000   0.00000  4.5  0.9
    294    6    27.9219   -42.4324    -9.9994     20   0.00   0.00000   0.00000   0.00000  4.5  0.9
    295    5    33.1241    38.9606   -13.8505     20   0.00  -0.11038  -0.49341  -0.12362  4.7  1.1
    296    6    31.7722    35.5124   -14.0895     20   0.00   0.00000   0.00000   0.00000  4.5  0.9