LAMMPS 'data.' description - created with Brahms (www.personal.soton.ac.uk/orsi/brahms)

     6152 atoms
     1792 bonds
     2048 angles

        6 atom types
        5 bond types
        5 angle types

    -34.08634     34.08634      xlo xhi
    -34.08634     34.08634      ylo yhi
    -31.56962     31.56962      zlo zhi

Atoms

      1    2    24.2010    18.5519   -31.5084      1   0.80   0.00000   0.00000   0.00000  4.8  1.6
      2    3    26.2088    21.5454   -29.3075      1  -0.80   0.00000   0.00000   0.00000  4.6  1.8
      3    4    24.4651    24.7622   -31.3454      1   0.00   0.14347  -0.14770   0.03079  4.6  1.2
      4    5    26.5896    28.4250   -31.3140      1   0.00  -0.14580   0.38847   0.03500  4.6  1.2
      5    6    25.7543    32.2937   -31.2477      1   0.00   0.00000   0.00000   0.00000  4.4  0.9
      6    6    23.8847   -32.5350   -31.2070      1   0.00   0.00000   0.00000   0.00000  4.4  0.9
      7    6    20.2559   -31.3782    31.0457      1   0.00   0.00000   0.00000   0.00000  4.4  0.9
      8    6    18.2306   -27.9068    31.4837      1   0.00   0.00000   0.00000   0.00000  4.4  0.9
      9    6    18.5508   -24.6056   -29.3539      1   0.00   0.00000   0.00000   0.00000  4.4  0.9
     10    5    22.6545    27.3434   -28.7153      1   0.00   0.07452   0.31780  -0.25853  4.6  1.2
     11    6    20.8481    30.9051   -27.9049      1   0.00   0.00000   0.00000   0.00000  4.4  0.9
     12    6    22.2182   -33.6820   -26.9127      1   0.00   0.00000   0.00000   0.00000  4.4  0.9
     13    6    21.0109   -29.9781   -27.5151      1   0.00   0.00000   0.00000   0.00000  4.4  0.9
     14    6    20.1414   -26.8412   -25.2537      1   0.00   0.00000   0.00000   0.00000  4.4  0.9
     15    6    17.7155   -27.4177   -22.1958      1   0.00   0.00000   0.00000   0.00000  4.4  0.9
     16    2   -11.3447   -20.3798    -4.9197      2   0.80   0.00000   0.00000   0.00000  4.8  1.6
     17    3   -11.8430   -21.9193    -8.9531      2  -0.80   0.00000   0.00000   0.00000  4.6  1.8
     18    4   -15.5337   -21.6966   -10.8637      2   0.00   0.16715   0.03926   0.11776  4.6  1.2
     19    5   -16.5541   -17.7699   -11.4593      2   0.00  -0.01386   0.20533   0.36199  4.6  1.2
     20    6   -14.7374   -14.2069   -11.7467      2   0.00   0.00000   0.00000   0.00000  4.4  0.9
     21    6   -14.2491   -11.0974    -9.4507      2   0.00   0.00000   0.00000   0.00000  4.4  0.9
     22    6   -13.6096   -11.8789    -5.6144      2   0.00   0.00000   0.00000   0.00000  4.4  0.9
     23    6   -12.2391   -10.9482    -1.8632      2   0.00   0.00000   0.00000   0.00000  4.4  0.9
     24    6   -12.1914    -9.0223     1.7350      2   0.00   0.00000   0.00000   0.00000  4.4  0.9
     25    5   -15.3772   -22.5849   -14.9325      2   0.00  -0.16261   0.31011  -0.22535  4.6  1.2
     26    6   -17.1728   -21.7004   -18.5861      2   0.00   0.00000   0.00000   0.00000  4.4  0.9
     27    6   -19.1062   -19.6933   -21.7100      2   0.00   0.00000   0.00000   0.00000  4.4  0.9
     28    6   -18.9627   -19.9645   -25.6509      2   0.00   0.00000   0.00000   0.00000  4.4  0.9
     29    6   -18.5018   -21.3079   -29.3110      2   0.00   0.00000   0.00000   0.00000  4.4  0.9
     30    6   -18.0615   -20.3444    30.0355      2   0.00   0.00000   0.00000   0.00000  4.4  0.9
     31    2   -12.3547   -25.6024     4.5532      3   0.80   0.00000   0.00000   0.00000  4.8  1.6
     32    3   -13.5305   -23.7588     8.2390      3  -0.80   0.00000   0.00000   0.00000  4.6  1.8
     33    4   -10.5255   -21.1309     8.2789      3   0.00  -0.04957  -0.08209  -0.18480  4.6  1.2
     34    5    -9.0724   -19.0838    11.4226      3   0.00   0.31729   0.23457   0.13301  4.6  1.2
     35    6    -5.8682   -17.2287    12.8456      3   0.00   0.00000   0.00000   0.00000  4.4  0.9
     36    6    -2.7003   -18.0964    14.9285      3   0.00   0.00000   0.00000   0.00000  4.4  0.9
     37    6     1.2050   -17.7714    14.7036      3   0.00   0.00000   0.00000   0.00000  4.4  0.9
     38    6     2.4662   -14.0388    15.1161      3   0.00   0.00000   0.00000   0.00000  4.4  0.9
     39    6     2.9295   -10.1572    14.6778      3   0.00   0.00000   0.00000   0.00000  4.4  0.9
     40    5   -11.6027   -17.1106     8.0428      3   0.00   0.20937   0.34458  -0.10401  4.6  1.2
     41    6    -8.4741   -14.3723     9.0779      3   0.00   0.00000   0.00000   0.00000  4.4  0.9
     42    6    -5.9458   -11.8117    10.6217      3   0.00   0.00000   0.00000   0.00000  4.4  0.9
     43    6    -5.3931    -9.7224     7.2690      3   0.00   0.00000   0.00000   0.00000  4.4  0.9
     44    6    -5.6884   -10.0198     3.3003      3   0.00   0.00000   0.00000   0.00000  4.4  0.9
     45    6    -7.7727    -8.6913    -0.0719      3   0.00   0.00000   0.00000   0.00000  4.4  0.9
     46    2     1.1820     3.8460   -24.0863      4   0.80   0.00000   0.00000   0.00000  4.8  1.6
     47    3     5.1509     5.9143   -24.0976      4  -0.80   0.00000   0.00000   0.00000  4.6  1.8
     48    4     2.8833     9.1305   -25.1103      4   0.00   0.18637  -0.02073   0.09046  4.6  1.2
     49    5    -0.5212    10.6577   -23.3956      4   0.00   0.14518  -0.06545   0.38474  4.6  1.2
     50    6    -3.1295    11.7172   -20.3865      4   0.00   0.00000   0.00000   0.00000  4.4  0.9
     51    6    -5.9570    10.0564   -18.0168      4   0.00   0.00000   0.00000   0.00000  4.4  0.9
     52    6    -4.0372     8.3835   -14.9542      4   0.00   0.00000   0.00000   0.00000  4.4  0.9
     53    6    -0.5578     6.5565   -16.1597      4   0.00   0.00000   0.00000   0.00000  4.4  0.9
     54    6     3.3770     5.4940   -15.7104      4   0.00   0.00000   0.00000   0.00000  4.4  0.9
     55    5     5.6450    11.9406   -26.4006      4   0.00  -0.02681  -0.23984  -0.33934  4.6  1.2
     56    6     8.0287    14.0179   -28.8852      4   0.00   0.00000   0.00000   0.00000  4.4  0.9
     57    6     9.8101    16.4322   -31.4164      4   0.00   0.00000   0.00000   0.00000  4.4  0.9
     58    6    12.5310    19.0443   -30.2796      4   0.00   0.00000   0.00000   0.00000  4.4  0.9
     59    6    15.8955    18.9774   -28.0832      4   0.00   0.00000   0.00000   0.00000  4.4  0.9
     60    6    19.4738    20.7652   -28.8435      4   0.00   0.00000   0.00000   0.00000  4.4  0.9
     61    2   -14.3122   -31.9221    -3.6936      5   0.80   0.00000   0.00000   0.00000  4.8  1.6
     62    3   -10.5602   -30.1210    -2.7882      5  -0.80   0.00000   0.00000   0.00000  4.6  1.8
     63    4    -8.4191   -28.8021     0.6451      5   0.00  -0.11010   0.09350  -0.14994  4.6  1.2
     64    5    -8.7167   -24.8186     1.0068      5   0.00  -0.24693   0.15655  -0.29649  4.6  1.2
     65    6    -6.7796   -21.7189    -0.9087      5   0.00   0.00000   0.00000   0.00000  4.4  0.9
     66    6    -6.7045   -17.7305    -1.6422      5   0.00   0.00000   0.00000   0.00000  4.4  0.9
     67    6   -10.3276   -16.0586    -1.6799      5   0.00   0.00000   0.00000   0.00000  4.4  0.9
     68    6   -13.9087   -15.8410    -0.2916      5   0.00   0.00000   0.00000   0.00000  4.4  0.9
     69    6   -17.3458   -14.1690    -0.1127      5   0.00   0.00000   0.00000   0.00000  4.4  0.9
     70    5    -9.8244   -30.1168     4.2330      5   0.00  -0.40479  -0.08824  -0.04181  4.6  1.2
     71    6   -11.2324   -32.1550     7.4832      5   0.00   0.00000   0.00000   0.00000  4.4  0.9
     72    6   -12.7878   -31.4734    11.1900      5   0.00   0.00000   0.00000   0.00000  4.4  0.9
     73    6   -11.1044   -30.7946    14.7808      5   0.00   0.00000   0.00000   0.00000  4.4  0.9
     74    6    -7.9125   -28.5293    14.4614      5   0.00   0.00000   0.00000   0.00000  4.4  0.9
     75    6    -6.7975   -25.3587    16.6524      5   0.00   0.00000   0.00000   0.00000  4.4  0.9
     76    2   -10.7960   -24.9195    31.1274      6   0.80   0.00000   0.00000   0.00000  4.8  1.6
     77    3    -7.1864   -24.4637    28.8711      6  -0.80   0.00000   0.00000   0.00000  4.6  1.8
     78    4    -6.3505   -21.6517    25.8575      6   0.00  -0.07288  -0.16352   0.10629  4.6  1.2
     79    5    -4.8036   -18.8984    28.4214      6   0.00   0.03963  -0.15705   0.38360  4.6  1.2
     80    6    -5.3043   -15.7098    30.6748      6   0.00   0.00000   0.00000   0.00000  4.4  0.9
     81    6    -3.7373   -13.1999   -29.8497      6   0.00   0.00000   0.00000   0.00000  4.4  0.9
     82    6     0.2417   -13.2973   -29.2357      6   0.00   0.00000   0.00000   0.00000  4.4  0.9
     83    6     3.8565   -14.9877   -28.5860      6   0.00   0.00000   0.00000   0.00000  4.4  0.9
     84    6     7.7415   -15.6706   -27.5392      6   0.00   0.00000   0.00000   0.00000  4.4  0.9
     85    5    -9.8185   -19.1969    25.9948      6   0.00  -0.04261   0.39356   0.12918  4.6  1.2
     86    6    -9.0621   -15.8207    28.0731      6   0.00   0.00000   0.00000   0.00000  4.4  0.9
     87    6    -9.3511   -12.1094    26.7443      6   0.00   0.00000   0.00000   0.00000  4.4  0.9
     88    6    -9.0721    -8.6557    28.7766      6   0.00   0.00000   0.00000   0.00000  4.4  0.9
     89    6    -9.4937    -6.6002   -30.9955      6   0.00   0.00000   0.00000   0.00000  4.4  0.9
     90    6    -9.8411    -3.3022   -28.9163      6   0.00   0.00000   0.00000   0.00000  4.4  0.9
     91    2    15.2300   -14.7674     9.5885      7   0.80   0.00000   0.00000   0.00000  4.8  1.6
     92    3    12.6044   -13.7621    12.8081      7  -0.80   0.00000   0.00000   0.00000  4.6  1.8
     93    4     9.2890   -12.4789    10.4361      7   0.00   0.18564  -0.04005   0.08533  4.6  1.2
     94    5     5.6400   -14.0329    11.8655      7   0.00  -0.38253   0.16114  -0.03306  4.6  1.2
     95    6     2.2496   -15.5861    10.1657      7   0.00   0.00000   0.00000   0.00000  4.4  0.9
     96    6    -1.3944   -17.0468    10.2511      7   0.00   0.00000   0.00000   0.00000  4.4  0.9
     97    6    -4.8329   -17.1147     8.2271      7   0.00   0.00000   0.00000   0.00000  4.4  0.9
     98    6    -7.4029   -18.0703     5.2442      7   0.00   0.00000   0.00000   0.00000  4.4  0.9
     99    6    -9.9336   -18.2033     2.0948      7   0.00   0.00000   0.00000   0.00000  4.4  0.9
    100    5     7.0195   -13.8074     7.0806      7   0.00  -0.40494  -0.09664  -0.00835  4.6  1.2
    101    6     4.3606   -12.8549     4.0494      7   0.00   0.00000   0.00000   0.00000  4.4  0.9
    102    6     1.7136    -9.8602     4.0809      7   0.00   0.00000   0.00000   0.00000  4.4  0.9
    103    6    -1.2497    -8.3766     1.8307      7   0.00   0.00000   0.00000   0.00000  4.4  0.9
    104    6    -3.2530    -7.4400    -1.3863      7   0.00   0.00000   0.00000   0.00000  4.4  0.9
    105    6    -2.9207    -6.7902    -5.3890      7   0.00   0.00000   0.00000   0.00000  4.4  0.9
    106    2    26.0025   -18.6204   -15.0334      8   0.80   0.00000   0.00000   0.00000  4.8  1.6
    107    3    22.1002   -18.4861   -13.2559      8  -0.80   0.00000   0.00000   0.00000  4.6  1.8
    108    4    22.2615   -18.5133    -9.1500      8   0.00   0.03073   0.00884  -0.20573  4.6  1.2
    109    5    22.5061   -21.8237    -6.5211      8   0.00  -0.16795  -0.32191   0.20385  4.6  1.2
    110    6    21.3684   -22.8342    -2.6043      8   0.00   0.00000   0.00000   0.00000  4.4  0.9
    111    6    21.5185   -26.4008    -0.8272      8   0.00   0.00000   0.00000   0.00000  4.4  0.9
    112    6    24.5321   -28.9180    -0.0587      8   0.00   0.00000   0.00000   0.00000  4.4  0.9
    113    6    26.6527   -32.0957    -0.6613      8   0.00   0.00000   0.00000   0.00000  4.4  0.9
    114    6    26.6151    32.6392     1.1942      8   0.00   0.00000   0.00000   0.00000  4.4  0.9
    115    5    18.2381   -18.8519    -7.9685      8   0.00   0.33652   0.07903   0.23216  4.6  1.2
    116    6    17.5673   -20.2526    -4.2369      8   0.00   0.00000   0.00000   0.00000  4.4  0.9
    117    6    17.2623   -20.6328    -0.3125      8   0.00   0.00000   0.00000   0.00000  4.4  0.9
    118    6    17.6276   -24.5061     0.6764      8   0.00   0.00000   0.00000   0.00000  4.4  0.9
    119    6    18.9417   -26.2651     4.0752      8   0.00   0.00000   0.00000   0.00000  4.4  0.9
    120    6    20.7730   -29.5119     5.5539      8   0.00   0.00000   0.00000   0.00000  4.4  0.9
    121    2    11.8343   -17.7651    15.8283      9   0.80   0.00000   0.00000   0.00000  4.8  1.6
    122    3    13.2071   -21.4104    14.1908      9  -0.80   0.00000   0.00000   0.00000  4.6  1.8
    123    4    12.9622   -21.2252    10.0132      9   0.00   0.12820  -0.02153   0.16263  4.6  1.2
    124    5    15.0996   -24.3136     8.1770      9   0.00   0.20111  -0.35062  -0.10006  4.6  1.2
    125    6    14.6407   -25.1673     4.1075      9   0.00   0.00000   0.00000   0.00000  4.4  0.9
    126    6    13.8709   -28.6350     2.1088      9   0.00   0.00000   0.00000   0.00000  4.4  0.9
    127    6    17.5185   -28.8350     0.4663      9   0.00   0.00000   0.00000   0.00000  4.4  0.9
    128    6    20.8090   -30.8806     1.3086      9   0.00   0.00000   0.00000   0.00000  4.4  0.9
    129    6    22.3561   -33.5157     3.7739      9   0.00   0.00000   0.00000   0.00000  4.4  0.9
    130    5     8.8403   -20.5406     9.0638      9   0.00   0.00923   0.41520  -0.03015  4.6  1.2
    131    6     6.4442   -18.3983     6.6238      9   0.00   0.00000   0.00000   0.00000  4.4  0.9
    132    6     3.3455   -17.3236     4.4179      9   0.00   0.00000   0.00000   0.00000  4.4  0.9
    133    6    -0.6026   -17.1939     4.6789      9   0.00   0.00000   0.00000   0.00000  4.4  0.9
    134    6    -3.7968   -18.6482     2.8946      9   0.00   0.00000   0.00000   0.00000  4.4  0.9
    135    6    -4.9329   -21.9124     4.8562      9   0.00   0.00000   0.00000   0.00000  4.4  0.9
    136    2    -6.3385   -13.0619   -13.1222     10   0.80   0.00000   0.00000   0.00000  4.8  1.6
    137    3    -3.6688   -16.0189   -14.1651     10  -0.80   0.00000   0.00000   0.00000  4.6  1.8
    138    4    -6.3565   -17.9484   -16.6667     10   0.00   0.18080  -0.00716   0.10299  4.6  1.2
    139    5    -8.7570   -18.5885   -13.2029     10   0.00   0.07704   0.07106   0.40299  4.6  1.2
    140    6    -8.7571   -18.1577    -9.2341     10   0.00   0.00000   0.00000   0.00000  4.4  0.9
    141    6    -9.4028   -15.6325    -6.4240     10   0.00   0.00000   0.00000   0.00000  4.4  0.9
    142    6    -7.3131   -12.4337    -7.3056     10   0.00   0.00000   0.00000   0.00000  4.4  0.9
    143    6    -4.3489   -10.3612    -8.8347     10   0.00   0.00000   0.00000   0.00000  4.4  0.9
    144    6    -0.8824    -9.1160   -10.3186     10   0.00   0.00000   0.00000   0.00000  4.4  0.9
    145    5    -7.6500   -21.9801   -16.3755     10   0.00  -0.26759   0.19306  -0.25399  4.6  1.2
    146    6   -11.0344   -24.1731   -16.9796     10   0.00   0.00000   0.00000   0.00000  4.4  0.9
    147    6   -13.1213   -23.4902   -20.2467     10   0.00   0.00000   0.00000   0.00000  4.4  0.9
    148    6   -11.6556   -26.6389   -22.2277     10   0.00   0.00000   0.00000   0.00000  4.4  0.9
    149    6    -9.0471   -28.3484   -19.6395     10   0.00   0.00000   0.00000   0.00000  4.4  0.9
    150    6    -6.7567   -27.8569   -16.2682     10   0.00   0.00000   0.00000   0.00000  4.4  0.9
    151    2    -1.5685    29.0200    -7.9860     11   0.80   0.00000   0.00000   0.00000  4.8  1.6
    152    3    -3.1053    30.9613    -4.5148     11  -0.80   0.00000   0.00000   0.00000  4.6  1.8
    153    4    -4.0067    29.5236    -0.6126     11   0.00   0.19175   0.05208  -0.06218  4.6  1.2
    154    5    -7.9521    28.4108     0.1390     11   0.00   0.28089   0.19430   0.23820  4.6  1.2
    155    6    -9.8024    25.6491     2.5488     11   0.00   0.00000   0.00000   0.00000  4.4  0.9
    156    6   -11.5913    25.7765     6.0531     11   0.00   0.00000   0.00000   0.00000  4.4  0.9
    157    6   -14.3874    22.9508     6.3691     11   0.00   0.00000   0.00000   0.00000  4.4  0.9
    158    6   -18.3233    23.5092     5.8104     11   0.00   0.00000   0.00000   0.00000  4.4  0.9
    159    6   -21.8898    24.9961     6.4589     11   0.00   0.00000   0.00000   0.00000  4.4  0.9
    160    5    -1.2373    29.6462     2.5128     11   0.00   0.00672  -0.22358   0.35122  4.6  1.2
    161    6    -3.2171    29.4094     6.2225     11   0.00   0.00000   0.00000   0.00000  4.4  0.9
    162    6    -4.5173    29.4735    10.0045     11   0.00   0.00000   0.00000   0.00000  4.4  0.9
    163    6    -1.4745    28.5011    12.3955     11   0.00   0.00000   0.00000   0.00000  4.4  0.9
    164    6     1.4565    26.1720    11.3324     11   0.00   0.00000   0.00000   0.00000  4.4  0.9
    165    6     3.1303    22.6443    11.7710     11   0.00   0.00000   0.00000   0.00000  4.4  0.9
    166    2    -8.2914   -23.7735   -11.6624     12   0.80   0.00000   0.00000   0.00000  4.8  1.6
    167    3    -4.5477   -24.8409    -9.9956     12  -0.80   0.00000   0.00000   0.00000  4.6  1.8
    168    4    -4.1308   -28.9121   -10.7444     12   0.00   0.07144   0.19537   0.00857  4.6  1.2
    169    5    -8.1836   -28.9577   -11.6373     12   0.00  -0.10287  -0.21927  -0.33871  4.6  1.2
    170    6   -10.9070   -29.8633   -14.4748     12   0.00   0.00000   0.00000   0.00000  4.4  0.9
    171    6   -10.2129   -33.1133   -16.6876     12   0.00   0.00000   0.00000   0.00000  4.4  0.9
    172    6    -8.0962   -33.4536   -20.0613     12   0.00   0.00000   0.00000   0.00000  4.4  0.9
    173    6    -8.0325   -31.3752   -23.4607     12   0.00   0.00000   0.00000   0.00000  4.4  0.9
    174    6    -7.1843   -27.7102   -24.5565     12   0.00   0.00000   0.00000   0.00000  4.4  0.9
    175    5    -1.1067   -29.3753   -13.8138     12   0.00   0.04691  -0.02218  -0.41315  4.6  1.2
    176    6    -0.9259   -31.3217   -17.6183     12   0.00   0.00000   0.00000   0.00000  4.4  0.9
    177    6    -2.9391    33.5858   -18.7353     12   0.00   0.00000   0.00000   0.00000  4.4  0.9
    178    6    -3.2857    31.0933   -15.7303     12   0.00   0.00000   0.00000   0.00000  4.4  0.9
    179    6    -3.3509    27.2916   -14.8190     12   0.00   0.00000   0.00000   0.00000  4.4  0.9
    180    6    -3.4408    23.6607   -16.0912     12   0.00   0.00000   0.00000   0.00000  4.4  0.9
    181    2   -20.8407    16.5881   -25.2919     13   0.80   0.00000   0.00000   0.00000  4.8  1.6
    182    3   -23.1909    20.1242   -25.3171     13  -0.80   0.00000   0.00000   0.00000  4.6  1.8
    183    4   -25.5503    22.0510   -28.1814     13   0.00   0.16763  -0.03693   0.11783  4.6  1.2
    184    5   -25.7311    19.6904    31.4273     13   0.00  -0.00871   0.37243  -0.18603  4.6  1.2
    185    6   -27.6496    20.9355    27.9855     13   0.00   0.00000   0.00000   0.00000  4.4  0.9
    186    6   -30.0807    20.3549    24.8671     13   0.00   0.00000   0.00000   0.00000  4.4  0.9
    187    6   -29.9218    21.5024    21.1369     13   0.00   0.00000   0.00000   0.00000  4.4  0.9
    188    6   -31.2930    22.9643    17.7349     13   0.00   0.00000   0.00000   0.00000  4.4  0.9
    189    6   -32.2748    25.4835    14.7578     13   0.00   0.00000   0.00000   0.00000  4.4  0.9
    190    5   -29.4497    22.0458   -29.4630     13   0.00   0.09703  -0.21799  -0.34126  4.6  1.2
    191    6   -33.2872    20.7217   -29.2520     13   0.00   0.00000   0.00000   0.00000  4.4  0.9
    192    6    32.3981    18.9844    31.3198     13   0.00   0.00000   0.00000   0.00000  4.4  0.9
    193    6    33.7824    15.7291    29.5733     13   0.00   0.00000   0.00000   0.00000  4.4  0.9
    194    6   -33.4798    11.9966    30.3583     13   0.00   0.00000   0.00000   0.00000  4.4  0.9
    195    6    32.7196     9.4175   -30.4874     13   0.00   0.00000   0.00000   0.00000  4.4  0.9
    196    2   -12.2202     7.3750    -3.5309     14   0.80   0.00000   0.00000   0.00000  4.8  1.6
    197    3   -11.8952     9.5914    -7.3634     14  -0.80   0.00000   0.00000   0.00000  4.6  1.8
    198    4   -10.0864    13.2931    -5.8978     14   0.00  -0.12315  -0.11902  -0.11839  4.6  1.2
    199    5    -6.2992    14.0550    -7.4755     14   0.00   0.31551  -0.02456  -0.27062  4.6  1.2
    200    6    -2.9230    14.9025    -9.6296     14   0.00   0.00000   0.00000   0.00000  4.4  0.9
    201    6     1.1133    15.1358    -9.8376     14   0.00   0.00000   0.00000   0.00000  4.4  0.9
    202    6     2.2437    11.6435   -11.6304     14   0.00   0.00000   0.00000   0.00000  4.4  0.9
    203    6     3.9183     9.8775   -14.7961     14   0.00   0.00000   0.00000   0.00000  4.4  0.9
    204    6     6.7104     8.2379   -17.0303     14   0.00   0.00000   0.00000   0.00000  4.4  0.9
    205    5   -10.7544    15.5275    -9.4349     14   0.00  -0.03911   0.19945   0.36342  4.6  1.2
    206    6   -10.0448    19.5035   -10.7017     14   0.00   0.00000   0.00000   0.00000  4.4  0.9
    207    6   -11.7568    23.1456   -11.0336     14   0.00   0.00000   0.00000   0.00000  4.4  0.9
    208    6   -10.8468    26.7778   -11.9730     14   0.00   0.00000   0.00000   0.00000  4.4  0.9
    209    6    -8.3511    29.2957   -13.3560     14   0.00   0.00000   0.00000   0.00000  4.4  0.9
    210    6    -5.0332    30.6343   -12.0132     14   0.00   0.00000   0.00000   0.00000  4.4  0.9
    211    2   -27.5838    25.6758    14.4770     15   0.80   0.00000   0.00000   0.00000  4.8  1.6
    212    3   -27.4223    29.8430    14.0809     15  -0.80   0.00000   0.00000   0.00000  4.6  1.8
    213    4   -23.9168    31.9818    12.9609     15   0.00  -0.08891   0.18241  -0.04655  4.6  1.2
    214    5   -22.5068    29.5992     9.8219     15   0.00  -0.23204   0.28136  -0.20095  4.6  1.2
    215    6   -23.2242    29.2726     5.9157     15   0.00   0.00000   0.00000   0.00000  4.4  0.9
    216    6   -25.4611    32.0400     4.2898     15   0.00   0.00000   0.00000   0.00000  4.4  0.9
    217    6   -28.3923    30.8090     2.0072     15   0.00   0.00000   0.00000   0.00000  4.4  0.9
    218    6   -30.9054    33.8370     1.9528     15   0.00   0.00000   0.00000   0.00000  4.4  0.9
    219    6   -33.2517   -31.5371     0.3366     15   0.00   0.00000   0.00000   0.00000  4.4  0.9
    220    5   -20.0680    30.5670    14.1088     15   0.00   0.17756   0.29596   0.23296  4.6  1.2
    221    6   -16.0276    30.4433    14.0506     15   0.00   0.00000   0.00000   0.00000  4.4  0.9
    222    6   -13.1115    31.4801    11.6825     15   0.00   0.00000   0.00000   0.00000  4.4  0.9
    223    6   -12.7105    31.2985     7.7366     15   0.00   0.00000   0.00000   0.00000  4.4  0.9
    224    6   -15.4291    29.4203     5.5001     15   0.00   0.00000   0.00000   0.00000  4.4  0.9
    225    6   -19.1463    30.5993     4.8733     15   0.00   0.00000   0.00000   0.00000  4.4  0.9
    226    2    25.5683    15.9210     2.1260     16   0.80   0.00000   0.00000   0.00000  4.8  1.6
    227    3    22.9708    14.2496     5.0889     16  -0.80   0.00000   0.00000   0.00000  4.6  1.8
    228    4    21.2033    17.9278     6.0173     16   0.00   0.13576  -0.14412  -0.06439  4.6  1.2
    229    5    17.6882    17.1603     3.9569     16   0.00  -0.12335  -0.00415  -0.39769  4.6  1.2
    230    6    14.8520    14.2775     3.8255     16   0.00   0.00000   0.00000   0.00000  4.4  0.9
    231    6    11.8486    11.8528     3.3411     16   0.00   0.00000   0.00000   0.00000  4.4  0.9
    232    6     8.5079    13.9316     3.9998     16   0.00   0.00000   0.00000   0.00000  4.4  0.9
    233    6     6.4958    16.5866     6.2662     16   0.00   0.00000   0.00000   0.00000  4.4  0.9
    234    6     3.0629    18.6921     5.8580     16   0.00   0.00000   0.00000   0.00000  4.4  0.9
    235    5    18.8313    15.3673     8.1478     16   0.00  -0.07299   0.38403   0.14346  4.6  1.2
    236    6    15.0005    16.6440     8.5720     16   0.00   0.00000   0.00000   0.00000  4.4  0.9
    237    6    11.4277    16.2351     6.9392     16   0.00   0.00000   0.00000   0.00000  4.4  0.9
    238    6    11.2703    17.3339     3.2165     16   0.00   0.00000   0.00000   0.00000  4.4  0.9
    239    6    11.9554    15.6118    -0.2214     16   0.00   0.00000   0.00000   0.00000  4.4  0.9
    240    6    12.7426    11.9170    -1.4065     16   0.00   0.00000   0.00000   0.00000  4.4  0.9
    241    2   -28.8186   -30.4529    11.2008     17   0.80   0.00000   0.00000   0.00000  4.8  1.6
    242    3   -30.2662   -27.8997     8.1685     17  -0.80   0.00000   0.00000   0.00000  4.6  1.8
    243    4   -29.6577   -29.1990     4.3697     17   0.00  -0.15241   0.00339   0.14180  4.6  1.2
    244    5   -29.1231   -29.4399     0.2195     17   0.00  -0.11116   0.20418  -0.34546  4.6  1.2
    245    6   -27.5788   -27.8797    -3.2645     17   0.00   0.00000   0.00000   0.00000  4.4  0.9
    246    6   -26.0718   -24.2251    -3.4303     17   0.00   0.00000   0.00000   0.00000  4.4  0.9
    247    6   -28.2222   -22.5288    -0.4151     17   0.00   0.00000   0.00000   0.00000  4.4  0.9
    248    6   -28.1510   -19.7526     2.4026     17   0.00   0.00000   0.00000   0.00000  4.4  0.9
    249    6   -25.6051   -16.8685     1.5839     17   0.00   0.00000   0.00000   0.00000  4.4  0.9
    250    5   -25.9934   -31.3983     3.9814     17   0.00  -0.22893   0.26487  -0.22545  4.6  1.2
    251    6   -23.0910   -32.2013     1.1240     17   0.00   0.00000   0.00000   0.00000  4.4  0.9
    252    6   -23.2545   -30.9923    -2.6927     17   0.00   0.00000   0.00000   0.00000  4.4  0.9
    253    6   -20.7893   -34.0623    -3.0879     17   0.00   0.00000   0.00000   0.00000  4.4  0.9
    254    6   -17.2952    32.3895    -2.1221     17   0.00   0.00000   0.00000   0.00000  4.4  0.9
    255    6   -15.3360    29.9834     0.5514     17   0.00   0.00000   0.00000   0.00000  4.4  0.9
    256    2    26.7352    -2.9814   -24.0516     18   0.80   0.00000   0.00000   0.00000  4.8  1.6
    257    3    29.3075    -5.8980   -22.0392     18  -0.80   0.00000   0.00000   0.00000  4.6  1.8
    258    4    28.9002    -9.4323   -24.2589     18   0.00  -0.11490   0.16711  -0.04712  4.6  1.2
    259    5    26.6511   -12.2334   -22.0913     18   0.00   0.31512  -0.21403   0.16816  4.6  1.2
    260    6    25.1347   -12.1467   -18.3484     18   0.00   0.00000   0.00000   0.00000  4.4  0.9
    261    6    25.4766    -8.9361   -16.0174     18   0.00   0.00000   0.00000   0.00000  4.4  0.9
    262    6    28.4199   -10.0139   -13.6097     18   0.00   0.00000   0.00000   0.00000  4.4  0.9
    263    6    27.9692   -12.6739   -10.7984     18   0.00   0.00000   0.00000   0.00000  4.4  0.9
    264    6    26.1751   -12.0453    -7.4860     18   0.00   0.00000   0.00000   0.00000  4.4  0.9
    265    5    31.1629    -8.9426   -27.8639     18   0.00  -0.01683  -0.30464  -0.28337  4.6  1.2
    266    6    33.1287    -9.1164   -31.4059     18   0.00   0.00000   0.00000   0.00000  4.4  0.9
    267    6   -32.1235   -11.1522    30.0442     18   0.00   0.00000   0.00000   0.00000  4.4  0.9
    268    6   -28.9037   -10.7706    27.6422     18   0.00   0.00000   0.00000   0.00000  4.4  0.9
    269    6   -25.1102    -9.4652    26.8176     18   0.00   0.00000   0.00000   0.00000  4.4  0.9
    270    6   -21.2686    -8.3473    27.4572     18   0.00   0.00000   0.00000   0.00000  4.4  0.9
    271    2    -0.0517   -19.6397   -12.3890     19   0.80   0.00000   0.00000   0.00000  4.8  1.6
    272    3     1.9047   -20.9538    -9.0008     19  -0.80   0.00000   0.00000   0.00000  4.6  1.8
    273    4     3.0134   -17.3410    -7.3354     19   0.00   0.06035  -0.16854  -0.10629  4.6  1.2
    274    5     3.4672   -18.3225    -3.4397     19   0.00   0.18209  -0.22607   0.29853  4.6  1.2
    275    6     5.7223   -19.6169    -0.4577     19   0.00   0.00000   0.00000   0.00000  4.4  0.9
    276    6     8.6241   -17.5759     1.1268     19   0.00   0.00000   0.00000   0.00000  4.4  0.9
    277    6     9.0484   -14.0594     2.8568     19   0.00   0.00000   0.00000   0.00000  4.4  0.9
    278    6     7.7855   -10.7523     1.1235     19   0.00   0.00000   0.00000   0.00000  4.4  0.9
    279    6     5.0601    -8.3689    -0.3704     19   0.00   0.00000   0.00000   0.00000  4.4  0.9
    280    5    -0.6510   -16.3892    -5.4074     19   0.00  -0.15203  -0.22371   0.31659  4.6  1.2
    281    6    -2.1767   -16.9546    -1.5364     19   0.00   0.00000   0.00000   0.00000  4.4  0.9
    282    6    -4.0274   -13.8141     0.1096     19   0.00   0.00000   0.00000   0.00000  4.4  0.9
    283    6    -7.8945   -13.4799     1.2794     19   0.00   0.00000   0.00000   0.00000  4.4  0.9
    284    6   -11.3408   -13.8214     3.3809     19   0.00   0.00000   0.00000   0.00000  4.4  0.9
    285    6   -14.2279   -16.1494     4.2697     19   0.00   0.00000   0.00000   0.00000  4.4  0.9
    286    2     7.0178   -19.4128   -19.5934     20   0.80   0.00000   0.00000   0.00000  4.8  1.6
    287    3     3.2575   -17.9855   -20.8008     20  -0.80   0.00000   0.00000   0.00000  4.6  1.8
    288    4    -0.0110   -18.8712   -23.0410     20   0.00   0.12748  -0.11152   0.12108  4.6  1.2
    289    5     1.9123   -20.1873   -26.6295     20   0.00   0.07591  -0.15190  -0.38020  4.6  1.2
    290    6     5.4258   -19.3617   -28.4646     20   0.00   0.00000   0.00000   0.00000  4.4  0.9
    291    6     7.3323   -18.4075    31.3404     20   0.00   0.00000   0.00000   0.00000  4.4  0.9
    292    6    10.6337   -16.0884   -31.5320     20   0.00   0.00000   0.00000   0.00000  4.4  0.9
    293    6    14.1318   -17.6116   -30.1858     20   0.00   0.00000   0.00000   0.00000  4.4  0.9
    294    6    16.5996   -20.9122   -30.3836     20   0.00   0.00000   0.00000   0.00000  4.4  0.9
    295    5    -4.2509   -20.3394   -23.0162     20   0.00  -0.39337  -0.12734  -0.04931  4.6  1.2
    296    6    -7.9660   -19.7050   -24.6295     20   0.00   0.00000   0.00000   0.00000  4.4  0.9