LAMMPS 'data.' input file - made with Brahms (http://code.google.com/p/brahms-md)

     6152 atoms
     1792 bonds
     2048 angles

        6 atom types
        5 bond types
        5 angle types

    -34.08634     34.08634      xlo xhi
    -34.08634     34.08634      ylo yhi
    -31.56962     31.56962      zlo zhi

Atoms

      1    2    23.7746    19.3857    30.9378      1   0.70   0.00000   0.00000   0.00000  5.4  1.1
      2    3    26.7222    23.5499   -29.6827      1  -0.70   0.00000   0.00000   0.00000  5.2  1.2
      3    4    24.8942    26.5637   -30.0913      1   0.00   0.26422   0.02492  -0.20133  4.6  1.2
      4    5    25.7339    30.8159   -31.5544      1   0.00  -0.16753   0.38119   0.00380  4.6  1.2
      5    6    23.8615    33.1870   -31.3772      1   0.00   0.00000   0.00000   0.00000  4.5  0.9
      6    6    20.0621   -33.3014   -31.1668      1   0.00   0.00000   0.00000   0.00000  4.5  0.9
      7    6    18.6288   -30.4266    31.1674      1   0.00   0.00000   0.00000   0.00000  4.5  0.9
      8    6    17.5440   -27.1405   -31.1198      1   0.00   0.00000   0.00000   0.00000  4.5  0.9
      9    6    18.6408   -24.9087   -28.9295      1   0.00   0.00000   0.00000   0.00000  4.5  0.9
     10    5    22.1442    27.9109   -28.2765      1   0.00  -0.12838   0.38808   0.07940  4.6  1.2
     11    6    21.4980    31.7045   -27.6844      1   0.00   0.00000   0.00000   0.00000  4.5  0.9
     12    6    22.3683    33.7614   -26.0424      1   0.00   0.00000   0.00000   0.00000  4.5  0.9
     13    6    21.3116   -31.5626   -26.8497      1   0.00   0.00000   0.00000   0.00000  4.5  0.9
     14    6    19.0405   -28.7950   -24.7126      1   0.00   0.00000   0.00000   0.00000  4.5  0.9
     15    6    17.7452   -28.3277   -21.2482      1   0.00   0.00000   0.00000   0.00000  4.5  0.9
     16    2   -11.7165   -19.4167    -4.7400      2   0.70   0.00000   0.00000   0.00000  5.4  1.1
     17    3   -12.1616   -22.7335    -9.6249      2  -0.70   0.00000   0.00000   0.00000  5.2  1.2
     18    4   -15.5613   -21.8624   -11.7208      2   0.00   0.09225  -0.10459   0.30252  4.6  1.2
     19    5   -16.4438   -17.8756   -10.2199      2   0.00  -0.00137   0.32514   0.26013  4.6  1.2
     20    6   -14.9027   -14.3822    -9.7392      2   0.00   0.00000   0.00000   0.00000  4.5  0.9
     21    6   -13.7548   -11.8397    -7.8220      2   0.00   0.00000   0.00000   0.00000  4.5  0.9
     22    6   -13.2873   -13.0742    -4.8838      2   0.00   0.00000   0.00000   0.00000  4.5  0.9
     23    6   -11.9467   -11.8696    -1.4366      2   0.00   0.00000   0.00000   0.00000  4.5  0.9
     24    6   -12.4932    -9.6948     1.0929      2   0.00   0.00000   0.00000   0.00000  4.5  0.9
     25    5   -15.7543   -22.2094   -15.2723      2   0.00  -0.17969   0.26916  -0.26203  4.6  1.2
     26    6   -17.7939   -22.7019   -18.9323      2   0.00   0.00000   0.00000   0.00000  4.5  0.9
     27    6   -19.4121   -20.5138   -20.6197      2   0.00   0.00000   0.00000   0.00000  4.5  0.9
     28    6   -18.3148   -20.3576   -24.8280      2   0.00   0.00000   0.00000   0.00000  4.5  0.9
     29    6   -18.2155   -20.7796   -28.4560      2   0.00   0.00000   0.00000   0.00000  4.5  0.9
     30    6   -17.8062   -20.7888    31.2200      2   0.00   0.00000   0.00000   0.00000  4.5  0.9
     31    2   -12.8969   -26.0954     4.2916      3   0.70   0.00000   0.00000   0.00000  5.4  1.1
     32    3   -12.7772   -21.7160     8.2547      3  -0.70   0.00000   0.00000   0.00000  5.2  1.2
     33    4   -10.6682   -18.1994     9.6329      3   0.00   0.10615  -0.20992  -0.23587  4.6  1.2
     34    5    -8.2608   -16.6802    12.5608      3   0.00   0.32753  -0.05920   0.25021  4.6  1.2
     35    6    -5.3784   -16.5643    12.5707      3   0.00   0.00000   0.00000   0.00000  4.5  0.9
     36    6    -2.3369   -18.5157    14.0783      3   0.00   0.00000   0.00000   0.00000  4.5  0.9
     37    6     0.2393   -17.9998    14.7446      3   0.00   0.00000   0.00000   0.00000  4.5  0.9
     38    6     2.0259   -15.3231    15.3057      3   0.00   0.00000   0.00000   0.00000  4.5  0.9
     39    6     3.2937   -11.5806    14.8979      3   0.00   0.00000   0.00000   0.00000  4.5  0.9
     40    5   -11.0615   -14.1773     9.6583      3   0.00   0.13042   0.34085  -0.20050  4.6  1.2
     41    6    -8.2101   -12.7059     9.0913      3   0.00   0.00000   0.00000   0.00000  4.5  0.9
     42    6    -5.1881   -11.9926     9.6038      3   0.00   0.00000   0.00000   0.00000  4.5  0.9
     43    6    -4.7720   -10.7148     6.4455      3   0.00   0.00000   0.00000   0.00000  4.5  0.9
     44    6    -5.9012   -10.2198     3.5754      3   0.00   0.00000   0.00000   0.00000  4.5  0.9
     45    6    -7.5265    -8.4240     0.5467      3   0.00   0.00000   0.00000   0.00000  4.5  0.9
     46    2     0.5459     3.2973   -23.7155      4   0.70   0.00000   0.00000   0.00000  5.4  1.1
     47    3     5.5463     5.2261   -24.7772      4  -0.70   0.00000   0.00000   0.00000  5.2  1.2
     48    4     3.7881     8.5383   -25.1078      4   0.00   0.11791   0.06996   0.30360  4.6  1.2
     49    5     1.1957    10.5540   -23.8902      4   0.00  -0.05395  -0.03207   0.41164  4.6  1.2
     50    6    -1.8159    11.5689   -21.5284      4   0.00   0.00000   0.00000   0.00000  4.5  0.9
     51    6    -4.4495    10.4357   -18.6861      4   0.00   0.00000   0.00000   0.00000  4.5  0.9
     52    6    -2.7590     7.9020   -15.1738      4   0.00   0.00000   0.00000   0.00000  4.5  0.9
     53    6     1.2313     6.0856   -15.3585      4   0.00   0.00000   0.00000   0.00000  4.5  0.9
     54    6     4.3885     5.6034   -14.1363      4   0.00   0.00000   0.00000   0.00000  4.5  0.9
     55    5     5.5746    10.8325   -26.7256      4   0.00   0.32770   0.15320  -0.20623  4.6  1.2
     56    6     6.3392    13.4414   -28.7609      4   0.00   0.00000   0.00000   0.00000  4.5  0.9
     57    6     8.8184    15.6586   -31.2580      4   0.00   0.00000   0.00000   0.00000  4.5  0.9
     58    6    12.5515    17.3713   -30.5389      4   0.00   0.00000   0.00000   0.00000  4.5  0.9
     59    6    15.8992    18.7593   -28.7561      4   0.00   0.00000   0.00000   0.00000  4.5  0.9
     60    6    19.3952    20.7616   -28.9443      4   0.00   0.00000   0.00000   0.00000  4.5  0.9
     61    2   -14.3388   -31.8126    -3.3842      5   0.70   0.00000   0.00000   0.00000  5.4  1.1
     62    3    -9.1557   -28.7242    -2.2529      5  -0.70   0.00000   0.00000   0.00000  5.2  1.2
     63    4    -7.9558   -27.7596     1.3881      5   0.00   0.14321   0.19061  -0.23265  4.6  1.2
     64    5    -6.6322   -24.5140     3.3352      5   0.00   0.31494   0.22491  -0.15367  4.6  1.2
     65    6    -5.8598   -20.6905     1.3438      5   0.00   0.00000   0.00000   0.00000  4.5  0.9
     66    6    -7.3710   -18.6347    -1.5516      5   0.00   0.00000   0.00000   0.00000  4.5  0.9
     67    6   -10.2102   -15.8492     0.1644      5   0.00   0.00000   0.00000   0.00000  4.5  0.9
     68    6   -14.7588   -16.0794     0.6365      5   0.00   0.00000   0.00000   0.00000  4.5  0.9
     69    6   -18.4756   -15.4173     1.0488      5   0.00   0.00000   0.00000   0.00000  4.5  0.9
     70    5    -9.1593   -30.3648     4.7065      5   0.00  -0.17137  -0.36568  -0.10149  4.6  1.2
     71    6   -12.0780   -31.0699     7.4914      5   0.00   0.00000   0.00000   0.00000  4.5  0.9
     72    6   -13.4863   -32.1723     9.4920      5   0.00   0.00000   0.00000   0.00000  4.5  0.9
     73    6   -12.0484   -28.7340    12.0776      5   0.00   0.00000   0.00000   0.00000  4.5  0.9
     74    6    -9.2496   -26.8347    13.6014      5   0.00   0.00000   0.00000   0.00000  4.5  0.9
     75    6    -7.1733   -25.6938    16.4366      5   0.00   0.00000   0.00000   0.00000  4.5  0.9
     76    2    -9.1800   -24.0852    30.6210      6   0.70   0.00000   0.00000   0.00000  5.4  1.1
     77    3    -6.0682   -23.7317    27.7940      6  -0.70   0.00000   0.00000   0.00000  5.2  1.2
     78    4    -6.8804   -20.3828    26.2654      6   0.00  -0.30223  -0.07702   0.11703  4.6  1.2
     79    5    -4.8443   -16.9295    27.2611      6   0.00  -0.05250  -0.17267   0.37526  4.6  1.2
     80    6    -3.8122   -15.5596    30.7793      6   0.00   0.00000   0.00000   0.00000  4.5  0.9
     81    6    -2.5655   -12.8773   -30.4335      6   0.00   0.00000   0.00000   0.00000  4.5  0.9
     82    6     0.4064   -12.9515   -29.2584      6   0.00   0.00000   0.00000   0.00000  4.5  0.9
     83    6     4.1844   -15.6366   -29.0887      6   0.00   0.00000   0.00000   0.00000  4.5  0.9
     84    6     6.8076   -16.8939   -26.7178      6   0.00   0.00000   0.00000   0.00000  4.5  0.9
     85    5    -9.1818   -17.2866    25.7681      6   0.00  -0.25658   0.31663  -0.08546  4.6  1.2
     86    6    -9.6292   -15.5786    27.6580      6   0.00   0.00000   0.00000   0.00000  4.5  0.9
     87    6   -10.5532   -11.9614    26.9351      6   0.00   0.00000   0.00000   0.00000  4.5  0.9
     88    6   -10.0165    -9.6257    29.3400      6   0.00   0.00000   0.00000   0.00000  4.5  0.9
     89    6   -10.1922    -7.7338   -30.4191      6   0.00   0.00000   0.00000   0.00000  4.5  0.9
     90    6    -9.5582    -4.0984   -28.6835      6   0.00   0.00000   0.00000   0.00000  4.5  0.9
     91    2    15.5523   -14.8162     8.3307      7   0.70   0.00000   0.00000   0.00000  5.4  1.1
     92    3    11.9267   -12.7505    11.6066      7  -0.70   0.00000   0.00000   0.00000  5.2  1.2
     93    4     8.5008   -13.1154     9.7471      7   0.00   0.13636  -0.19335  -0.23450  4.6  1.2
     94    5     4.8870   -15.2434    10.6267      7   0.00  -0.36518   0.19142  -0.05824  4.6  1.2
     95    6     1.9938   -14.5199     9.8592      7   0.00   0.00000   0.00000   0.00000  4.5  0.9
     96    6    -1.2750   -15.5054     9.7126      7   0.00   0.00000   0.00000   0.00000  4.5  0.9
     97    6    -3.9697   -16.3451     7.5379      7   0.00   0.00000   0.00000   0.00000  4.5  0.9
     98    6    -6.2241   -17.9552     7.2972      7   0.00   0.00000   0.00000   0.00000  4.5  0.9
     99    6    -8.5236   -18.7900     5.3668      7   0.00   0.00000   0.00000   0.00000  4.5  0.9
    100    5     6.3865   -12.9469     6.4038      7   0.00  -0.38854  -0.14628   0.03199  4.6  1.2
    101    6     4.6306   -11.5131     3.7938      7   0.00   0.00000   0.00000   0.00000  4.5  0.9
    102    6     2.5221    -9.6102     2.0866      7   0.00   0.00000   0.00000   0.00000  4.5  0.9
    103    6    -1.3379    -9.1975     1.9051      7   0.00   0.00000   0.00000   0.00000  4.5  0.9
    104    6    -3.0303    -7.6540    -0.8192      7   0.00   0.00000   0.00000   0.00000  4.5  0.9
    105    6    -2.0777    -7.6136    -5.5479      7   0.00   0.00000   0.00000   0.00000  4.5  0.9
    106    2    26.2266   -18.1210   -14.0084      8   0.70   0.00000   0.00000   0.00000  5.4  1.1
    107    3    22.4366   -19.4544   -12.5451      8  -0.70   0.00000   0.00000   0.00000  5.2  1.2
    108    4    20.5500   -20.0159    -8.8261      8   0.00   0.16977  -0.27641   0.07581  4.6  1.2
    109    5    22.0262   -22.0191    -5.9959      8   0.00   0.00635  -0.40524  -0.09555  4.6  1.2
    110    6    22.4799   -23.4210    -2.4086      8   0.00   0.00000   0.00000   0.00000  4.5  0.9
    111    6    21.8104   -26.6257    -0.9333      8   0.00   0.00000   0.00000   0.00000  4.5  0.9
    112    6    24.3806   -28.9438    -1.0508      8   0.00   0.00000   0.00000   0.00000  4.5  0.9
    113    6    25.0014   -31.5209    -1.4342      8   0.00   0.00000   0.00000   0.00000  4.5  0.9
    114    6    25.0789    33.5758    -0.0747      8   0.00   0.00000   0.00000   0.00000  4.5  0.9
    115    5    18.2474   -20.3508    -7.4970      8   0.00   0.10927  -0.03959   0.39985  4.6  1.2
    116    6    17.6598   -21.0629    -3.2269      8   0.00   0.00000   0.00000   0.00000  4.5  0.9
    117    6    16.6094   -21.6170     0.1405      8   0.00   0.00000   0.00000   0.00000  4.5  0.9
    118    6    18.2939   -23.4017     1.1947      8   0.00   0.00000   0.00000   0.00000  4.5  0.9
    119    6    19.4704   -26.4740     3.0759      8   0.00   0.00000   0.00000   0.00000  4.5  0.9
    120    6    20.8395   -28.7496     4.7109      8   0.00   0.00000   0.00000   0.00000  4.5  0.9
    121    2    11.4836   -16.7216    14.8006      9   0.70   0.00000   0.00000   0.00000  5.4  1.1
    122    3    13.3713   -21.9940    13.1735      9  -0.70   0.00000   0.00000   0.00000  5.2  1.2
    123    4    12.8345   -22.2912     9.9608      9   0.00   0.32030  -0.06694   0.06241  4.6  1.2
    124    5    13.9787   -24.1856     7.2600      9   0.00  -0.14860  -0.38887  -0.00929  4.6  1.2
    125    6    14.8293   -26.0654     4.5232      9   0.00   0.00000   0.00000   0.00000  4.5  0.9
    126    6    14.9912   -27.6992     1.3911      9   0.00   0.00000   0.00000   0.00000  4.5  0.9
    127    6    17.6364   -29.2862    -0.4068      9   0.00   0.00000   0.00000   0.00000  4.5  0.9
    128    6    19.9173   -31.7645     0.6465      9   0.00   0.00000   0.00000   0.00000  4.5  0.9
    129    6    21.5914   -32.7321     2.5957      9   0.00   0.00000   0.00000   0.00000  4.5  0.9
    130    5     9.9202   -20.7082     7.7383      9   0.00   0.03242   0.21139  -0.35728  4.6  1.2
    131    6     7.2751   -18.0847     7.6643      9   0.00   0.00000   0.00000   0.00000  4.5  0.9
    132    6     5.1566   -17.1134     4.7380      9   0.00   0.00000   0.00000   0.00000  4.5  0.9
    133    6     2.5730   -16.5734     5.1065      9   0.00   0.00000   0.00000   0.00000  4.5  0.9
    134    6    -0.1472   -18.4406     6.0950      9   0.00   0.00000   0.00000   0.00000  4.5  0.9
    135    6    -2.8580   -20.1922     4.9167      9   0.00   0.00000   0.00000   0.00000  4.5  0.9
    136    2    -6.7046   -13.3786   -12.3655     10   0.70   0.00000   0.00000   0.00000  5.4  1.1
    137    3    -3.8959   -16.2540   -15.9181     10  -0.70   0.00000   0.00000   0.00000  5.2  1.2
    138    4    -6.7435   -18.0808   -15.0461     10   0.00  -0.07207   0.28590   0.15504  4.6  1.2
    139    5    -8.4831   -19.3507   -11.6557     10   0.00  -0.19829   0.01792   0.36572  4.6  1.2
    140    6    -7.7412   -17.5636    -8.8506     10   0.00   0.00000   0.00000   0.00000  4.5  0.9
    141    6    -8.1749   -15.2723    -6.0217     10   0.00   0.00000   0.00000   0.00000  4.5  0.9
    142    6    -6.6246   -12.3543    -6.7404     10   0.00   0.00000   0.00000   0.00000  4.5  0.9
    143    6    -3.5422   -10.8224    -8.9458     10   0.00   0.00000   0.00000   0.00000  4.5  0.9
    144    6     0.4974   -10.6490    -8.2343     10   0.00   0.00000   0.00000   0.00000  4.5  0.9
    145    5    -7.3250   -21.7395   -16.5113     10   0.00  -0.05934  -0.06283  -0.40733  4.6  1.2
    146    6    -9.8806   -22.5979   -18.0297     10   0.00   0.00000   0.00000   0.00000  4.5  0.9
    147    6   -13.1737   -23.0370   -19.0329     10   0.00   0.00000   0.00000   0.00000  4.5  0.9
    148    6   -12.2517   -26.1665   -19.7833     10   0.00   0.00000   0.00000   0.00000  4.5  0.9
    149    6    -9.0247   -27.9267   -17.8557     10   0.00   0.00000   0.00000   0.00000  4.5  0.9
    150    6    -5.8259   -29.2837   -16.7275     10   0.00   0.00000   0.00000   0.00000  4.5  0.9
    151    2    -2.5010    28.8162    -7.8966     11   0.70   0.00000   0.00000   0.00000  5.4  1.1
    152    3    -3.9699    30.6626    -4.1286     11  -0.70   0.00000   0.00000   0.00000  5.2  1.2
    153    4    -4.2673    28.8440    -0.5572     11   0.00   0.32936   0.04735   0.01585  4.6  1.2
    154    5    -7.7897    27.4781     0.3061     11   0.00   0.30052   0.12649   0.25899  4.6  1.2
    155    6    -9.2584    26.5888     2.7199     11   0.00   0.00000   0.00000   0.00000  4.5  0.9
    156    6   -11.9826    26.3562     5.1185     11   0.00   0.00000   0.00000   0.00000  4.5  0.9
    157    6   -13.6011    25.4478     6.8161     11   0.00   0.00000   0.00000   0.00000  4.5  0.9
    158    6   -16.8520    24.8259     6.2726     11   0.00   0.00000   0.00000   0.00000  4.5  0.9
    159    6   -20.8363    25.8489     6.7211     11   0.00   0.00000   0.00000   0.00000  4.5  0.9
    160    5    -2.4722    28.8194     2.1110     11   0.00   0.25737  -0.26309   0.19477  4.6  1.2
    161    6    -3.7352    28.2390     4.9071     11   0.00   0.00000   0.00000   0.00000  4.5  0.9
    162    6    -4.3823    28.0866     8.2811     11   0.00   0.00000   0.00000   0.00000  4.5  0.9
    163    6    -2.4557    27.6597    11.1125     11   0.00   0.00000   0.00000   0.00000  4.5  0.9
    164    6     1.0784    24.8371    10.3384     11   0.00   0.00000   0.00000   0.00000  4.5  0.9
    165    6     3.1006    23.0715    13.1010     11   0.00   0.00000   0.00000   0.00000  4.5  0.9
    166    2    -8.3182   -24.9592   -12.9069     12   0.70   0.00000   0.00000   0.00000  5.4  1.1
    167    3    -4.0026   -25.5551    -9.7647     12  -0.70   0.00000   0.00000   0.00000  5.2  1.2
    168    4    -4.6373   -28.3401   -11.9832     12   0.00  -0.08622   0.10744  -0.30330  4.6  1.2
    169    5    -8.2653   -29.8690   -11.3503     12   0.00   0.10407  -0.36062   0.18031  4.6  1.2
    170    6   -10.4044   -30.4937   -13.9026     12   0.00   0.00000   0.00000   0.00000  4.5  0.9
    171    6   -11.0620   -32.0019   -16.4167     12   0.00   0.00000   0.00000   0.00000  4.5  0.9
    172    6    -7.2609   -33.3098   -18.5845     12   0.00   0.00000   0.00000   0.00000  4.5  0.9
    173    6    -7.1180   -31.6446   -20.8991     12   0.00   0.00000   0.00000   0.00000  4.5  0.9
    174    6    -6.2851   -28.6935   -22.4031     12   0.00   0.00000   0.00000   0.00000  4.5  0.9
    175    5    -1.8616   -29.5752   -14.3201     12   0.00   0.01787  -0.13097  -0.39486  4.6  1.2
    176    6    -1.5360   -31.9407   -16.8389     12   0.00   0.00000   0.00000   0.00000  4.5  0.9
    177    6    -1.8285    33.0756   -18.2647     12   0.00   0.00000   0.00000   0.00000  4.5  0.9
    178    6    -2.8218    30.7442   -16.3239     12   0.00   0.00000   0.00000   0.00000  4.5  0.9
    179    6    -3.3740    27.4292   -14.2836     12   0.00   0.00000   0.00000   0.00000  4.5  0.9
    180    6    -3.2180    23.4949   -15.8756     12   0.00   0.00000   0.00000   0.00000  4.5  0.9
    181    2   -20.7167    16.9488   -25.6156     13   0.70   0.00000   0.00000   0.00000  5.4  1.1
    182    3   -23.6023    21.2680   -26.0092     13  -0.70   0.00000   0.00000   0.00000  5.2  1.2
    183    4   -26.4430    22.0480   -28.6091     13   0.00   0.33214  -0.00223   0.02541  4.6  1.2
    184    5   -26.0499    19.9495    30.5578     13   0.00  -0.21680  -0.05191  -0.35170  4.6  1.2
    185    6   -26.3400    22.0860    26.8566     13   0.00   0.00000   0.00000   0.00000  4.5  0.9
    186    6   -29.4718    21.1855    24.3659     13   0.00   0.00000   0.00000   0.00000  4.5  0.9
    187    6   -29.5316    22.3819    20.0366     13   0.00   0.00000   0.00000   0.00000  4.5  0.9
    188    6   -31.0340    23.7926    17.2060     13   0.00   0.00000   0.00000   0.00000  4.5  0.9
    189    6   -33.7523    25.3541    14.0711     13   0.00   0.00000   0.00000   0.00000  4.5  0.9
    190    5   -30.0784    22.6917   -30.1083     13   0.00  -0.04128   0.18653  -0.36999  4.6  1.2
    191    6   -32.9044    21.7715   -30.1208     13   0.00   0.00000   0.00000   0.00000  4.5  0.9
    192    6    31.9020    20.1621    30.9250     13   0.00   0.00000   0.00000   0.00000  4.5  0.9
    193    6    32.5239    16.6698    30.3091     13   0.00   0.00000   0.00000   0.00000  4.5  0.9
    194    6    33.8544    13.0653    31.0308     13   0.00   0.00000   0.00000   0.00000  4.5  0.9
    195    6    33.4305    10.5228   -30.8431     13   0.00   0.00000   0.00000   0.00000  4.5  0.9
    196    2   -11.8469     6.2361    -3.7510     14   0.70   0.00000   0.00000   0.00000  5.4  1.1
    197    3   -11.3548    10.4041    -7.6413     14  -0.70   0.00000   0.00000   0.00000  5.2  1.2
    198    4    -8.8000    13.6740    -8.1662     14   0.00   0.02236  -0.25087  -0.21802  4.6  1.2
    199    5    -4.9823    13.4455    -7.7289     14   0.00   0.31500  -0.05047  -0.26762  4.6  1.2
    200    6    -2.0024    14.0649    -9.5191     14   0.00   0.00000   0.00000   0.00000  4.5  0.9
    201    6     0.9085    14.3681   -10.8053     14   0.00   0.00000   0.00000   0.00000  4.5  0.9
    202    6     2.7227    11.2814   -11.7089     14   0.00   0.00000   0.00000   0.00000  4.5  0.9
    203    6     3.9847    10.2377   -14.4479     14   0.00   0.00000   0.00000   0.00000  4.5  0.9
    204    6     6.6393     9.3360   -16.6866     14   0.00   0.00000   0.00000   0.00000  4.5  0.9
    205    5    -9.2738    16.7025    -9.9247     14   0.00   0.22900   0.29468   0.18470  4.6  1.2
    206    6    -9.3313    20.8783   -10.1557     14   0.00   0.00000   0.00000   0.00000  4.5  0.9
    207    6   -11.6075    23.9605   -10.1786     14   0.00   0.00000   0.00000   0.00000  4.5  0.9
    208    6   -10.4067    27.0317   -11.6736     14   0.00   0.00000   0.00000   0.00000  4.5  0.9
    209    6    -8.0628    28.0638   -13.4563     14   0.00   0.00000   0.00000   0.00000  4.5  0.9
    210    6    -5.1825    31.0222   -12.3573     14   0.00   0.00000   0.00000   0.00000  4.5  0.9
    211    2   -28.7315    27.3613    13.9255     15   0.70   0.00000   0.00000   0.00000  5.4  1.1
    212    3   -27.0398    31.4296    12.0331     15  -0.70   0.00000   0.00000   0.00000  5.2  1.2
    213    4   -23.4598    31.4054    12.1701     15   0.00  -0.05399   0.29303  -0.14896  4.6  1.2
    214    5   -22.7905    29.3300     9.7416     15   0.00  -0.00129   0.22363  -0.35125  4.6  1.2
    215    6   -23.4078    29.3676     5.1960     15   0.00   0.00000   0.00000   0.00000  4.5  0.9
    216    6   -25.2632    30.4802     4.5216     15   0.00   0.00000   0.00000   0.00000  4.5  0.9
    217    6   -27.4209    31.6589     2.7060     15   0.00   0.00000   0.00000   0.00000  4.5  0.9
    218    6   -30.7595   -33.9135     2.7031     15   0.00   0.00000   0.00000   0.00000  4.5  0.9
    219    6   -32.8255   -31.3875     0.9818     15   0.00   0.00000   0.00000   0.00000  4.5  0.9
    220    5   -20.3160    31.7245    13.7418     15   0.00   0.21723  -0.04445   0.35246  4.6  1.2
    221    6   -15.7698    31.1313    13.2883     15   0.00   0.00000   0.00000   0.00000  4.5  0.9
    222    6   -12.7610    31.0386    10.5467     15   0.00   0.00000   0.00000   0.00000  4.5  0.9
    223    6   -13.5504    30.5225     8.0792     15   0.00   0.00000   0.00000   0.00000  4.5  0.9
    224    6   -15.7721    29.7097     5.3289     15   0.00   0.00000   0.00000   0.00000  4.5  0.9
    225    6   -18.0856    29.4801     4.4182     15   0.00   0.00000   0.00000   0.00000  4.5  0.9
    226    2    25.3790    15.6655     0.3166     16   0.70   0.00000   0.00000   0.00000  5.4  1.1
    227    3    23.2377    15.2474     4.1608     16  -0.70   0.00000   0.00000   0.00000  5.2  1.2
    228    4    19.0233    16.5153     5.8296     16   0.00  -0.24711  -0.14975  -0.16576  4.6  1.2
    229    5    15.3225    15.9147     4.7431     16   0.00  -0.18532  -0.21094  -0.30749  4.6  1.2
    230    6    13.1062    13.5891     4.1751     16   0.00   0.00000   0.00000   0.00000  4.5  0.9
    231    6    11.0072    11.4189     2.0144     16   0.00   0.00000   0.00000   0.00000  4.5  0.9
    232    6     7.6290    12.9603     4.6090     16   0.00   0.00000   0.00000   0.00000  4.5  0.9
    233    6     5.8831    16.4681     6.3361     16   0.00   0.00000   0.00000   0.00000  4.5  0.9
    234    6     5.1537    19.2761     4.7077     16   0.00   0.00000   0.00000   0.00000  4.5  0.9
    235    5    17.1474    16.0933     9.8692     16   0.00  -0.37522   0.00087  -0.18056  4.6  1.2
    236    6    13.5483    16.1587     9.9013     16   0.00   0.00000   0.00000   0.00000  4.5  0.9
    237    6    10.6673    17.2865     7.7274     16   0.00   0.00000   0.00000   0.00000  4.5  0.9
    238    6    10.8352    17.9742     3.9952     16   0.00   0.00000   0.00000   0.00000  4.5  0.9
    239    6    11.9226    17.7025     0.5911     16   0.00   0.00000   0.00000   0.00000  4.5  0.9
    240    6    12.2588    14.8974    -0.6118     16   0.00   0.00000   0.00000   0.00000  4.5  0.9
    241    2   -28.5912   -31.3301    11.4659     17   0.70   0.00000   0.00000   0.00000  5.4  1.1
    242    3   -29.6897   -27.1482     8.4760     17  -0.70   0.00000   0.00000   0.00000  5.2  1.2
    243    4   -29.4891   -29.0774     4.5566     17   0.00  -0.05670   0.28758  -0.15828  4.6  1.2
    244    5   -28.5938   -29.5427    -0.3459     17   0.00  -0.01561   0.29791  -0.29051  4.6  1.2
    245    6   -27.7198   -27.2417    -2.4169     17   0.00   0.00000   0.00000   0.00000  4.5  0.9
    246    6   -27.1148   -23.9147    -1.9314     17   0.00   0.00000   0.00000   0.00000  4.5  0.9
    247    6   -28.4851   -21.2353     0.2662     17   0.00   0.00000   0.00000   0.00000  4.5  0.9
    248    6   -26.7313   -18.4116     1.6438     17   0.00   0.00000   0.00000   0.00000  4.5  0.9
    249    6   -24.0183   -16.5776     0.9247     17   0.00   0.00000   0.00000   0.00000  4.5  0.9
    250    5   -26.5031   -31.9426     4.0755     17   0.00   0.15172   0.34801  -0.17106  4.6  1.2
    251    6   -24.6675   -31.9682     1.8302     17   0.00   0.00000   0.00000   0.00000  4.5  0.9
    252    6   -23.9388   -31.2628    -1.3720     17   0.00   0.00000   0.00000   0.00000  4.5  0.9
    253    6   -21.2761   -33.7710    -3.2491     17   0.00   0.00000   0.00000   0.00000  4.5  0.9
    254    6   -17.6260    32.8848    -2.0479     17   0.00   0.00000   0.00000   0.00000  4.5  0.9
    255    6   -16.0144    32.0546     0.8409     17   0.00   0.00000   0.00000   0.00000  4.5  0.9
    256    2    25.5803    -2.4071   -24.2458     18   0.70   0.00000   0.00000   0.00000  5.4  1.1
    257    3    28.7349    -6.6990   -23.0944     18  -0.70   0.00000   0.00000   0.00000  5.2  1.2
    258    4    30.2491   -10.1675   -23.4673     18   0.00   0.10543   0.31557   0.01632  4.6  1.2
    259    5    27.4605   -12.2633   -21.6886     18   0.00  -0.30280  -0.18235   0.22010  4.6  1.2
    260    6    26.2965   -13.3352   -18.2643     18   0.00   0.00000   0.00000   0.00000  4.5  0.9
    261    6    26.7162   -12.0903   -15.4257     18   0.00   0.00000   0.00000   0.00000  4.5  0.9
    262    6    27.5286   -12.5609   -11.8833     18   0.00   0.00000   0.00000   0.00000  4.5  0.9
    263    6    26.4601   -13.8074    -9.1121     18   0.00   0.00000   0.00000   0.00000  4.5  0.9
    264    6    25.0409   -12.8109    -5.9967     18   0.00   0.00000   0.00000   0.00000  4.5  0.9
    265    5    31.5054   -10.9811   -27.5928     18   0.00   0.22872  -0.29080  -0.19108  4.6  1.2
    266    6    33.1555    -8.9674   -30.0588     18   0.00   0.00000   0.00000   0.00000  4.5  0.9
    267    6   -33.1394    -9.8610    30.0028     18   0.00   0.00000   0.00000   0.00000  4.5  0.9
    268    6   -29.6972    -9.1543    28.8102     18   0.00   0.00000   0.00000   0.00000  4.5  0.9
    269    6   -26.7230    -8.5623    27.7098     18   0.00   0.00000   0.00000   0.00000  4.5  0.9
    270    6   -22.9924    -8.9701    27.8217     18   0.00   0.00000   0.00000   0.00000  4.5  0.9
    271    2     0.1395   -17.6476   -12.4087     19   0.70   0.00000   0.00000   0.00000  5.4  1.1
    272    3     2.4906   -20.0508    -8.9152     19  -0.70   0.00000   0.00000   0.00000  5.2  1.2
    273    4     2.1573   -18.4798    -5.6901     19   0.00   0.14869  -0.27715   0.10977  4.6  1.2
    274    5     4.0550   -19.1895    -2.3984     19   0.00   0.17736   0.21244   0.31113  4.6  1.2
    275    6     5.7338   -19.7829    -0.1274     19   0.00   0.00000   0.00000   0.00000  4.5  0.9
    276    6     8.8680   -17.2524     1.5403     19   0.00   0.00000   0.00000   0.00000  4.5  0.9
    277    6     8.8040   -13.6747     2.4047     19   0.00   0.00000   0.00000   0.00000  4.5  0.9
    278    6     7.9259   -10.5889     0.3207     19   0.00   0.00000   0.00000   0.00000  4.5  0.9
    279    6     5.5372   -10.7043    -2.0283     19   0.00   0.00000   0.00000   0.00000  4.5  0.9
    280    5    -0.2177   -16.9626    -3.8882     19   0.00  -0.25957  -0.14332   0.29236  4.6  1.2
    281    6    -1.8933   -17.8234    -1.0552     19   0.00   0.00000   0.00000   0.00000  4.5  0.9
    282    6    -3.9807   -15.8242     0.9948     19   0.00   0.00000   0.00000   0.00000  4.5  0.9
    283    6    -6.9804   -14.9576     3.2373     19   0.00   0.00000   0.00000   0.00000  4.5  0.9
    284    6    -8.9619   -13.7953     4.7509     19   0.00   0.00000   0.00000   0.00000  4.5  0.9
    285    6   -12.1845   -15.2709     4.7432     19   0.00   0.00000   0.00000   0.00000  4.5  0.9
    286    2     8.8028   -19.1738   -17.9706     20   0.70   0.00000   0.00000   0.00000  5.4  1.1
    287    3     3.5339   -17.6638   -20.2320     20  -0.70   0.00000   0.00000   0.00000  5.2  1.2
    288    4     0.8241   -19.0952   -23.5409     20   0.00  -0.12671  -0.30481   0.04478  4.6  1.2
    289    5     1.9932   -19.1270   -27.2018     20   0.00   0.09534  -0.23720  -0.32869  4.6  1.2
    290    6     4.7775   -20.8416   -29.7048     20   0.00   0.00000   0.00000   0.00000  4.5  0.9
    291    6     7.4395   -19.2753   -30.7284     20   0.00   0.00000   0.00000   0.00000  4.5  0.9
    292    6    10.9016   -18.8739   -31.0255     20   0.00   0.00000   0.00000   0.00000  4.5  0.9
    293    6    14.1537   -19.4649   -30.1765     20   0.00   0.00000   0.00000   0.00000  4.5  0.9
    294    6    17.5502   -20.1029   -29.8314     20   0.00   0.00000   0.00000   0.00000  4.5  0.9
    295    5    -3.5167   -20.4889   -23.8004     20   0.00  -0.27638  -0.29696   0.09390  4.6  1.2
    296    6    -6.7326   -20.0202   -25.2717     20   0.00   0.00000   0.00000   0.00000  4.5  0.9