LAMMPS 'data.' description - created with Brahms (www.personal.soton.ac.uk/orsi/brahms)

       15 atoms
       14 bonds
       16 angles

        6 atom types
        5 bond types
        5 angle types

    -20 40      xlo xhi
    -20 40      ylo yhi
    -20 40      zlo zhi

Atoms

      1    2    12.3296    20.4303    13.5227      1   0.70   0.00000   0.00000   0.00000  5.2  1.2
      2    3     8.3958    24.1232    14.4181      1  -0.70   0.00000   0.00000   0.00000  5.2  1.2
      3    4     7.0385    23.7506    11.4117      1   0.00  -0.18698   0.00445   0.27566  4.6  1.2
      4    5     8.1717    25.6445     7.6698      1   0.00   0.22385  -0.26225  -0.23346  4.6  1.2
      5    6    10.7061    24.4038     6.1104      1   0.00   0.00000   0.00000   0.00000  4.5  0.9
      6    6    14.0408    25.7676     5.6158      1   0.00   0.00000   0.00000   0.00000  4.5  0.9
      7    6    16.8835    25.2578     2.7771      1   0.00   0.00000   0.00000   0.00000  4.5  0.9
      8    6    16.6265    23.5425     0.0989      1   0.00   0.00000   0.00000   0.00000  4.5  0.9
      9    6    17.0783    20.2410    -1.5504      1   0.00   0.00000   0.00000   0.00000  4.5  0.9
     10    5     4.4240    22.0365    10.6280      1   0.00   0.10476   0.15220  -0.37316  4.6  1.2
     11    6     3.5979    20.2155     8.4218      1   0.00   0.00000   0.00000   0.00000  4.5  0.9
     12    6     4.1723    19.6138     4.2864      1   0.00   0.00000   0.00000   0.00000  4.5  0.9
     13    6     2.0011    21.8997     2.4666      1   0.00   0.00000   0.00000   0.00000  4.5  0.9
     14    6    -0.8058    23.2985     2.0482      1   0.00   0.00000   0.00000   0.00000  4.5  0.9
     15    6    -3.2228    23.0700     3.9133      1   0.00   0.00000   0.00000   0.00000  4.5  0.9

Bonds

      1    1       1       2
      2    2       2       3
      3    3       3       4
      4    3       3      10
      5    4       4       5
      6    5       5       6
      7    5       6       7
      8    5       7       8
      9    5       8       9
     10    4      10      11
     11    5      11      12
     12    5      12      13
     13    5      13      14
     14    5      14      15

Angles

      1    1       1       2       3
      2    2       2       3       4
      3    2       2       3      10
      4    5       3       2       2
      5    5       4       5       5
      6    5      10      11      11
      7    3       3       4       5
      8    3       4       5       6
      9    4       5       6       7
     10    3       6       7       8
     11    3       7       8       9
     12    3       3      10      11
     13    3      10      11      12
     14    4      11      12      13
     15    3      12      13      14
     16    3      13      14      15
