LAMMPS 'data.' description - created with Brahms (www.personal.soton.ac.uk/orsi/brahms)

    26214 atoms
    21504 bonds
    24576 angles

        6 atom types
        5 bond types
        5 angle types

          -62           62      xlo xhi
          -62           62      ylo yhi
          -21          105      zlo zhi

Atoms

      1    2   -57.1028   -57.2573    17.9184      1   0.80   0.00000   0.00000   0.00000  4.6  0.8
      2    3   -58.1646   -58.1054    16.3358      1  -0.80   0.00000   0.00000   0.00000  4.9  1.5
      3    4   -58.1529   -58.2470    13.7069      1   0.00   0.30195  -0.08534   0.27373  4.7  1.1
      4    5   -60.0688   -58.2252    12.0409      1   0.00  -0.16436   0.48370   0.09970  4.7  1.1
      5    6   -60.0712   -58.1955     9.6840      1   0.00   0.00000   0.00000   0.00000  4.6  0.8
      6    6   -60.0604   -58.0866     7.4903      1   0.00   0.00000   0.00000   0.00000  4.6  0.8
      7    6   -60.0605   -58.1071     5.4693      1   0.00   0.00000   0.00000   0.00000  4.6  0.8
      8    6   -60.0631   -58.2692     3.0390      1   0.00   0.00000   0.00000   0.00000  4.6  0.8
      9    6   -60.1103   -58.2880     1.3843      1   0.00   0.00000   0.00000   0.00000  4.6  0.8
     10    5   -56.1879   -58.0608    12.0178      1   0.00   0.00107  -0.04624  -0.51844  4.7  1.1
     11    6   -56.1797   -58.2714     9.7152      1   0.00   0.00000   0.00000   0.00000  4.6  0.8
     12    6   -56.1878   -58.0832     7.4721      1   0.00   0.00000   0.00000   0.00000  4.6  0.8
     13    6   -56.1857   -57.9088     5.5355      1   0.00   0.00000   0.00000   0.00000  4.6  0.8
     14    6   -56.1981   -57.9863     3.0154      1   0.00   0.00000   0.00000   0.00000  4.6  0.8
     15    6   -56.1499   -58.2115     1.5003      1   0.00   0.00000   0.00000   0.00000  4.6  0.8
     16    2   -57.3052   -57.0746   -17.9702      2   0.80   0.00000   0.00000   0.00000  4.6  0.8
     17    3   -58.1165   -58.1974   -16.2915      2  -0.80   0.00000   0.00000   0.00000  4.9  1.5
     18    4   -58.2660   -58.1728   -13.7192      2   0.00  -0.05440   0.23791  -0.33738  4.7  1.1
     19    5   -57.9776   -60.0542   -11.9958      2   0.00  -0.51213  -0.07288   0.05768  4.7  1.1
     20    6   -57.9164   -60.0604    -9.7096      2   0.00   0.00000   0.00000   0.00000  4.6  0.8
     21    6   -58.1082   -60.0581    -7.4603      2   0.00   0.00000   0.00000   0.00000  4.6  0.8
     22    6   -58.0168   -60.0605    -5.5325      2   0.00   0.00000   0.00000   0.00000  4.6  0.8
     23    6   -57.9361   -60.0570    -3.0109      2   0.00   0.00000   0.00000   0.00000  4.6  0.8
     24    6   -57.9793   -60.0963    -1.4900      2   0.00   0.00000   0.00000   0.00000  4.6  0.8
     25    5   -58.3705   -56.1723   -12.0231      2   0.00   0.09359   0.50849   0.05996  4.7  1.1
     26    6   -58.3843   -56.1781    -9.6789      2   0.00   0.00000   0.00000   0.00000  4.6  0.8
     27    6   -57.9558   -56.1769    -7.5005      2   0.00   0.00000   0.00000   0.00000  4.6  0.8
     28    6   -58.0926   -56.1859    -5.4484      2   0.00   0.00000   0.00000   0.00000  4.6  0.8
     29    6   -58.2517   -56.1949    -3.0518      2   0.00   0.00000   0.00000   0.00000  4.6  0.8
     30    6   -58.0336   -56.1394    -1.3552      2   0.00   0.00000   0.00000   0.00000  4.6  0.8
     31    2   -51.0950   -57.6214    18.1767      3   0.80   0.00000   0.00000   0.00000  4.6  0.8
     32    3   -50.2965   -58.1206    16.2942      3  -0.80   0.00000   0.00000   0.00000  4.9  1.5
     33    4   -50.3621   -58.0802    13.7812      3   0.00   0.09064   0.34740  -0.21092  4.7  1.1
     34    5   -52.3154   -58.0873    12.0312      3   0.00  -0.20011  -0.36785  -0.30913  4.7  1.1
     35    6   -52.3155   -58.0591     9.7601      3   0.00   0.00000   0.00000   0.00000  4.6  0.8
     36    6   -52.3069   -58.2600     7.4692      3   0.00   0.00000   0.00000   0.00000  4.6  0.8
     37    6   -52.3196   -58.2705     5.5534      3   0.00   0.00000   0.00000   0.00000  4.6  0.8
     38    6   -52.3033   -58.0059     3.0006      3   0.00   0.00000   0.00000   0.00000  4.6  0.8
     39    6   -52.3453   -58.1797     1.4654      3   0.00   0.00000   0.00000   0.00000  4.6  0.8
     40    5   -48.4255   -58.0591    12.0260      3   0.00   0.44090   0.00828   0.27651  4.7  1.1
     41    6   -48.4282   -58.2555     9.7490      3   0.00   0.00000   0.00000   0.00000  4.6  0.8
     42    6   -48.4350   -58.0061     7.4859      3   0.00   0.00000   0.00000   0.00000  4.6  0.8
     43    6   -48.4364   -58.2240     5.5216      3   0.00   0.00000   0.00000   0.00000  4.6  0.8
     44    6   -48.4338   -58.0843     3.0233      3   0.00   0.00000   0.00000   0.00000  4.6  0.8
     45    6   -48.4010   -58.0967     1.4126      3   0.00   0.00000   0.00000   0.00000  4.6  0.8
     46    2   -50.8714   -57.7095   -18.2679      4   0.80   0.00000   0.00000   0.00000  4.6  0.8
     47    3   -50.3632   -58.0854   -16.2183      4  -0.80   0.00000   0.00000   0.00000  4.9  1.5
     48    4   -50.3603   -58.1123   -13.7623      4   0.00  -0.26008   0.14625  -0.29044  4.7  1.1
     49    5   -50.2422   -60.0752   -11.9826      4   0.00  -0.30664   0.41372   0.07569  4.7  1.1
     50    6   -50.5505   -60.0753    -9.7605      4   0.00   0.00000   0.00000   0.00000  4.6  0.8
     51    6   -50.2848   -60.0635    -7.4615      4   0.00   0.00000   0.00000   0.00000  4.6  0.8
     52    6   -50.2447   -60.0677    -5.5602      4   0.00   0.00000   0.00000   0.00000  4.6  0.8
     53    6   -50.3867   -60.0614    -3.0031      4   0.00   0.00000   0.00000   0.00000  4.6  0.8
     54    6   -50.4066   -60.1017    -1.4748      4   0.00   0.00000   0.00000   0.00000  4.6  0.8
     55    5   -50.4401   -56.1863   -12.0170      4   0.00   0.46633  -0.22828  -0.03669  4.7  1.1
     56    6   -50.5150   -56.1782    -9.7370      4   0.00   0.00000   0.00000   0.00000  4.6  0.8
     57    6   -50.2278   -56.1813    -7.5069      4   0.00   0.00000   0.00000   0.00000  4.6  0.8
     58    6   -50.2677   -56.1897    -5.5362      4   0.00   0.00000   0.00000   0.00000  4.6  0.8
     59    6   -50.2904   -56.1932    -3.0525      4   0.00   0.00000   0.00000   0.00000  4.6  0.8
     60    6   -50.4616   -56.1518    -1.4553      4   0.00   0.00000   0.00000   0.00000  4.6  0.8
     61    2   -41.9612   -56.7144    17.5975      5   0.80   0.00000   0.00000   0.00000  4.6  0.8
     62    3   -42.6572   -58.1657    16.3114      5  -0.80   0.00000   0.00000   0.00000  4.9  1.5
     63    4   -42.6101   -58.2871    13.6575      5   0.00   0.27933   0.30550  -0.04506  4.7  1.1
     64    5   -44.5600   -58.2122    11.9483      5   0.00  -0.21567   0.33801  -0.33189  4.7  1.1
     65    6   -44.5706   -57.9521     9.6876      5   0.00   0.00000   0.00000   0.00000  4.6  0.8
     66    6   -44.5626   -58.2654     7.4322      5   0.00   0.00000   0.00000   0.00000  4.6  0.8
     67    6   -44.5619   -58.0197     5.4873      5   0.00   0.00000   0.00000   0.00000  4.6  0.8
     68    6   -44.5486   -58.2889     2.9858      5   0.00   0.00000   0.00000   0.00000  4.6  0.8
     69    6   -44.6001   -58.0306     1.4434      5   0.00   0.00000   0.00000   0.00000  4.6  0.8
     70    5   -40.6850   -57.9828    12.0472      5   0.00  -0.32484  -0.02048  -0.40618  4.7  1.1
     71    6   -40.6820   -58.1705     9.6350      5   0.00   0.00000   0.00000   0.00000  4.6  0.8
     72    6   -40.6939   -58.2039     7.4834      5   0.00   0.00000   0.00000   0.00000  4.6  0.8
     73    6   -40.6853   -57.9611     5.4275      5   0.00   0.00000   0.00000   0.00000  4.6  0.8
     74    6   -40.6907   -58.0026     3.0208      5   0.00   0.00000   0.00000   0.00000  4.6  0.8
     75    6   -40.6229   -58.3741     1.3811      5   0.00   0.00000   0.00000   0.00000  4.6  0.8
     76    2   -42.1092   -56.7894   -17.6920      6   0.80   0.00000   0.00000   0.00000  4.6  0.8
     77    3   -42.5675   -58.1564   -16.2752      6  -0.80   0.00000   0.00000   0.00000  4.9  1.5
     78    4   -42.6814   -58.2713   -13.6767      6   0.00   0.08092  -0.08255  -0.40003  4.7  1.1
     79    5   -42.4083   -60.0568   -12.0023      6   0.00  -0.37928  -0.35543  -0.02712  4.7  1.1
     80    6   -42.3896   -60.0616    -9.6593      6   0.00   0.00000   0.00000   0.00000  4.6  0.8
     81    6   -42.8528   -60.0670    -7.4780      6   0.00   0.00000   0.00000   0.00000  4.6  0.8
     82    6   -42.4581   -60.0668    -5.4659      6   0.00   0.00000   0.00000   0.00000  4.6  0.8
     83    6   -42.6421   -60.0564    -3.0436      6   0.00   0.00000   0.00000   0.00000  4.6  0.8
     84    6   -42.8153   -60.1035    -1.4408      6   0.00   0.00000   0.00000   0.00000  4.6  0.8
     85    5   -42.8718   -56.1843   -12.0036      6   0.00   0.04932  -0.36723   0.36556  4.7  1.1
     86    6   -42.9233   -56.1717    -9.7170      6   0.00   0.00000   0.00000   0.00000  4.6  0.8
     87    6   -42.4463   -56.1970    -7.4467      6   0.00   0.00000   0.00000   0.00000  4.6  0.8
     88    6   -42.6679   -56.1876    -5.4852      6   0.00   0.00000   0.00000   0.00000  4.6  0.8
     89    6   -42.5452   -56.1907    -2.9913      6   0.00   0.00000   0.00000   0.00000  4.6  0.8
     90    6   -42.5160   -56.1470    -1.3976      6   0.00   0.00000   0.00000   0.00000  4.6  0.8
     91    2   -35.0892   -57.6960    18.0599      7   0.80   0.00000   0.00000   0.00000  4.6  0.8
     92    3   -34.8661   -58.1003    16.2960      7  -0.80   0.00000   0.00000   0.00000  4.9  1.5
     93    4   -34.8735   -58.0931    13.7633      7   0.00  -0.12027   0.12932  -0.37709  4.7  1.1
     94    5   -36.8224   -58.2324    12.0491      7   0.00   0.17204   0.48180  -0.09588  4.7  1.1
     95    6   -36.8192   -58.1630     9.8092      7   0.00   0.00000   0.00000   0.00000  4.6  0.8
     96    6   -36.8154   -58.2787     7.4906      7   0.00   0.00000   0.00000   0.00000  4.6  0.8
     97    6   -36.8141   -58.1085     5.6002      7   0.00   0.00000   0.00000   0.00000  4.6  0.8
     98    6   -36.8030   -58.1277     3.0281      7   0.00   0.00000   0.00000   0.00000  4.6  0.8
     99    6   -36.8385   -57.8980     1.4989      7   0.00   0.00000   0.00000   0.00000  4.6  0.8
    100    5   -32.9290   -58.1734    12.0016      7   0.00  -0.20424   0.19508  -0.43721  4.7  1.1
    101    6   -32.9252   -58.2336     9.7916      7   0.00   0.00000   0.00000   0.00000  4.6  0.8
    102    6   -32.9364   -58.0776     7.4621      7   0.00   0.00000   0.00000   0.00000  4.6  0.8
    103    6   -32.9403   -58.0875     5.5652      7   0.00   0.00000   0.00000   0.00000  4.6  0.8
    104    6   -32.9343   -58.2278     2.9990      7   0.00   0.00000   0.00000   0.00000  4.6  0.8
    105    6   -32.9008   -58.1935     1.4476      7   0.00   0.00000   0.00000   0.00000  4.6  0.8
    106    2   -34.7979   -57.8725   -18.0565      8   0.80   0.00000   0.00000   0.00000  4.6  0.8
    107    3   -34.9375   -58.1619   -16.2710      8  -0.80   0.00000   0.00000   0.00000  4.9  1.5
    108    4   -34.8616   -58.1388   -13.7242      8   0.00  -0.24127   0.22459   0.25443  4.7  1.1
    109    5   -34.7544   -60.0704   -12.0399      8   0.00  -0.27971   0.43186  -0.07859  4.7  1.1
    110    6   -34.8254   -60.0663    -9.7255      8   0.00   0.00000   0.00000   0.00000  4.6  0.8
    111    6   -34.7864   -60.0588    -7.4821      8   0.00   0.00000   0.00000   0.00000  4.6  0.8
    112    6   -34.7526   -60.0579    -5.5046      8   0.00   0.00000   0.00000   0.00000  4.6  0.8
    113    6   -35.0050   -60.0651    -3.0085      8   0.00   0.00000   0.00000   0.00000  4.6  0.8
    114    6   -35.0557   -60.1071    -1.3952      8   0.00   0.00000   0.00000   0.00000  4.6  0.8
    115    5   -34.9985   -56.1769   -11.9905      8   0.00  -0.15590  -0.12696   0.48010  4.7  1.1
    116    6   -34.9193   -56.1790    -9.7702      8   0.00   0.00000   0.00000   0.00000  4.6  0.8
    117    6   -34.9991   -56.1857    -7.4775      8   0.00   0.00000   0.00000   0.00000  4.6  0.8
    118    6   -35.0959   -56.1831    -5.5778      8   0.00   0.00000   0.00000   0.00000  4.6  0.8
    119    6   -34.6893   -56.2044    -3.0233      8   0.00   0.00000   0.00000   0.00000  4.6  0.8
    120    6   -34.7675   -56.1630    -1.4974      8   0.00   0.00000   0.00000   0.00000  4.6  0.8
    121    2   -27.4498   -56.7810    17.6675      9   0.80   0.00000   0.00000   0.00000  4.6  0.8
    122    3   -27.1021   -58.1960    16.2859      9  -0.80   0.00000   0.00000   0.00000  4.9  1.5
    123    4   -27.0774   -58.2626    13.6961      9   0.00   0.20147  -0.03574  -0.36266  4.7  1.1
    124    5   -29.0622   -57.9781    12.0361      9   0.00   0.27271  -0.43928  -0.05983  4.7  1.1
    125    6   -29.0643   -57.8344     9.6851      9   0.00   0.00000   0.00000   0.00000  4.6  0.8
    126    6   -29.0598   -57.9681     7.4768      9   0.00   0.00000   0.00000   0.00000  4.6  0.8
    127    6   -29.0637   -58.2228     5.4714      9   0.00   0.00000   0.00000   0.00000  4.6  0.8
    128    6   -29.0461   -58.2887     3.0175      9   0.00   0.00000   0.00000   0.00000  4.6  0.8
    129    6   -29.1063   -57.9006     1.4136      9   0.00   0.00000   0.00000   0.00000  4.6  0.8
    130    5   -25.1889   -58.0973    11.9669      9   0.00   0.13837   0.48190  -0.13982  4.7  1.1
    131    6   -25.1906   -58.4213     9.6617      9   0.00   0.00000   0.00000   0.00000  4.6  0.8
    132    6   -25.1921   -58.1651     7.4562      9   0.00   0.00000   0.00000   0.00000  4.6  0.8
    133    6   -25.1837   -58.1986     5.4578      9   0.00   0.00000   0.00000   0.00000  4.6  0.8
    134    6   -25.1901   -57.8829     3.0192      9   0.00   0.00000   0.00000   0.00000  4.6  0.8
    135    6   -25.1351   -58.2685     1.4128      9   0.00   0.00000   0.00000   0.00000  4.6  0.8
    136    2   -27.3892   -56.7107   -17.7045     10   0.80   0.00000   0.00000   0.00000  4.6  0.8
    137    3   -27.0733   -58.2210   -16.1892     10  -0.80   0.00000   0.00000   0.00000  4.9  1.5
    138    4   -27.1109   -58.2761   -13.7150     10   0.00  -0.21658  -0.19168  -0.29956  4.7  1.1
    139    5   -27.1543   -60.0729   -11.9431     10   0.00   0.24720   0.45727  -0.02683  4.7  1.1
    140    6   -27.2358   -60.0692    -9.6567     10   0.00   0.00000   0.00000   0.00000  4.6  0.8
    141    6   -27.3387   -60.0695    -7.4372     10   0.00   0.00000   0.00000   0.00000  4.6  0.8
    142    6   -27.0849   -60.0625    -5.4419     10   0.00   0.00000   0.00000   0.00000  4.6  0.8
    143    6   -27.3097   -60.0546    -3.0081     10   0.00   0.00000   0.00000   0.00000  4.6  0.8
    144    6   -27.3026   -60.1023    -1.3853     10   0.00   0.00000   0.00000   0.00000  4.6  0.8
    145    5   -27.2465   -56.1811   -11.9884     10   0.00   0.43585  -0.28448  -0.00501  4.7  1.1
    146    6   -27.1699   -56.1685    -9.7200     10   0.00   0.00000   0.00000   0.00000  4.6  0.8
    147    6   -26.9607   -56.1977    -7.4502     10   0.00   0.00000   0.00000   0.00000  4.6  0.8
    148    6   -27.2210   -56.1847    -5.4893     10   0.00   0.00000   0.00000   0.00000  4.6  0.8
    149    6   -27.0591   -56.1971    -3.0014     10   0.00   0.00000   0.00000   0.00000  4.6  0.8
    150    6   -26.8936   -56.1376    -1.4347     10   0.00   0.00000   0.00000   0.00000  4.6  0.8
    151    2   -18.8172   -57.8005    18.0328     11   0.80   0.00000   0.00000   0.00000  4.6  0.8
    152    3   -19.4743   -58.0838    16.2564     11  -0.80   0.00000   0.00000   0.00000  4.9  1.5
    153    4   -19.3519   -58.0661    13.7303     11   0.00   0.33624   0.20758  -0.13131  4.7  1.1
    154    5   -21.3221   -58.1658    12.0460     11   0.00  -0.04991   0.15838   0.49330  4.7  1.1
    155    6   -21.3319   -57.9728     9.7866     11   0.00   0.00000   0.00000   0.00000  4.6  0.8
    156    6   -21.3127   -58.1410     7.4826     11   0.00   0.00000   0.00000   0.00000  4.6  0.8
    157    6   -21.3104   -58.0013     5.5804     11   0.00   0.00000   0.00000   0.00000  4.6  0.8
    158    6   -21.3083   -58.2847     3.0114     11   0.00   0.00000   0.00000   0.00000  4.6  0.8
    159    6   -21.3401   -58.1007     1.4812     11   0.00   0.00000   0.00000   0.00000  4.6  0.8
    160    5   -17.4322   -58.1842    12.0079     11   0.00  -0.50683  -0.03255  -0.11393  4.7  1.1
    161    6   -17.4393   -58.3201     9.7456     11   0.00   0.00000   0.00000   0.00000  4.6  0.8
    162    6   -17.4364   -57.9625     7.4756     11   0.00   0.00000   0.00000   0.00000  4.6  0.8
    163    6   -17.4322   -58.0094     5.5310     11   0.00   0.00000   0.00000   0.00000  4.6  0.8
    164    6   -17.4393   -58.1304     3.0164     11   0.00   0.00000   0.00000   0.00000  4.6  0.8
    165    6   -17.4006   -58.0659     1.4278     11   0.00   0.00000   0.00000   0.00000  4.6  0.8
    166    2   -18.9615   -57.9648   -18.1109     12   0.80   0.00000   0.00000   0.00000  4.6  0.8
    167    3   -19.4348   -58.0897   -16.2317     12  -0.80   0.00000   0.00000   0.00000  4.9  1.5
    168    4   -19.4080   -58.1324   -13.7701     12   0.00  -0.03732  -0.37820   0.17018  4.7  1.1
    169    5   -19.3083   -60.0616   -11.9770     12   0.00   0.11481   0.45518  -0.22483  4.7  1.1
    170    6   -19.2923   -60.0641    -9.7742     12   0.00   0.00000   0.00000   0.00000  4.6  0.8
    171    6   -19.3358   -60.0678    -7.4468     12   0.00   0.00000   0.00000   0.00000  4.6  0.8
    172    6   -19.2052   -60.0620    -5.5610     12   0.00   0.00000   0.00000   0.00000  4.6  0.8
    173    6   -19.3346   -60.0569    -2.9828     12   0.00   0.00000   0.00000   0.00000  4.6  0.8
    174    6   -19.3904   -60.0902    -1.4553     12   0.00   0.00000   0.00000   0.00000  4.6  0.8
    175    5   -19.4091   -56.1778   -12.0722     12   0.00   0.23927   0.29987  -0.35178  4.7  1.1
    176    6   -19.6244   -56.1798    -9.7544     12   0.00   0.00000   0.00000   0.00000  4.6  0.8
    177    6   -19.2710   -56.1881    -7.5405     12   0.00   0.00000   0.00000   0.00000  4.6  0.8
    178    6   -19.4514   -56.1875    -5.5575     12   0.00   0.00000   0.00000   0.00000  4.6  0.8
    179    6   -19.3434   -56.1878    -3.0671     12   0.00   0.00000   0.00000   0.00000  4.6  0.8
    180    6   -19.4311   -56.1465    -1.4736     12   0.00   0.00000   0.00000   0.00000  4.6  0.8
    181    2   -12.7064   -57.1546    17.8672     13   0.80   0.00000   0.00000   0.00000  4.6  0.8
    182    3   -11.5339   -58.1439    16.2326     13  -0.80   0.00000   0.00000   0.00000  4.9  1.5
    183    4   -11.5250   -58.2932    13.7343     13   0.00   0.37217  -0.11780   0.14491  4.7  1.1
    184    5   -13.5547   -58.1938    12.0240     13   0.00   0.37387  -0.20470  -0.29872  4.7  1.1
    185    6   -13.5717   -58.0311     9.7195     13   0.00   0.00000   0.00000   0.00000  4.6  0.8
    186    6   -13.5566   -58.2099     7.4631     13   0.00   0.00000   0.00000   0.00000  4.6  0.8
    187    6   -13.5637   -58.3132     5.5092     13   0.00   0.00000   0.00000   0.00000  4.6  0.8
    188    6   -13.5577   -58.0012     2.9962     13   0.00   0.00000   0.00000   0.00000  4.6  0.8
    189    6   -13.5999   -58.3065     1.4346     13   0.00   0.00000   0.00000   0.00000  4.6  0.8
    190    5    -9.6734   -57.9233    11.9715     13   0.00  -0.01816   0.50093   0.14022  4.7  1.1
    191    6    -9.6816   -58.2562     9.6733     13   0.00   0.00000   0.00000   0.00000  4.6  0.8
    192    6    -9.6895   -57.9888     7.4487     13   0.00   0.00000   0.00000   0.00000  4.6  0.8
    193    6    -9.6848   -58.2170     5.4657     13   0.00   0.00000   0.00000   0.00000  4.6  0.8
    194    6    -9.6930   -58.1748     3.0057     13   0.00   0.00000   0.00000   0.00000  4.6  0.8
    195    6    -9.6422   -57.8558     1.4122     13   0.00   0.00000   0.00000   0.00000  4.6  0.8
    196    2   -12.6588   -57.0537   -17.8048     14   0.80   0.00000   0.00000   0.00000  4.6  0.8
    197    3   -11.5646   -58.1511   -16.2963     14  -0.80   0.00000   0.00000   0.00000  4.9  1.5
    198    4   -11.4786   -58.2479   -13.7358     14   0.00  -0.04973  -0.40238  -0.09490  4.7  1.1
    199    5   -11.5419   -60.0633   -12.0350     14   0.00  -0.40262  -0.08721  -0.31814  4.7  1.1
    200    6   -11.4984   -60.0717    -9.6808     14   0.00   0.00000   0.00000   0.00000  4.6  0.8
    201    6   -11.7094   -60.0672    -7.4632     14   0.00   0.00000   0.00000   0.00000  4.6  0.8
    202    6   -11.8425   -60.0708    -5.4730     14   0.00   0.00000   0.00000   0.00000  4.6  0.8
    203    6   -11.5855   -60.0656    -3.0105     14   0.00   0.00000   0.00000   0.00000  4.6  0.8
    204    6   -11.3997   -60.1069    -1.4117     14   0.00   0.00000   0.00000   0.00000  4.6  0.8
    205    5   -11.8371   -56.1835   -12.0224     14   0.00   0.15737  -0.43088   0.24596  4.7  1.1
    206    6   -11.6830   -56.1800    -9.7279     14   0.00   0.00000   0.00000   0.00000  4.6  0.8
    207    6   -11.5149   -56.1936    -7.4713     14   0.00   0.00000   0.00000   0.00000  4.6  0.8
    208    6   -11.4949   -56.1981    -5.5115     14   0.00   0.00000   0.00000   0.00000  4.6  0.8
    209    6   -11.5424   -56.1973    -3.0176     14   0.00   0.00000   0.00000   0.00000  4.6  0.8
    210    6   -11.8546   -56.1541    -1.4583     14   0.00   0.00000   0.00000   0.00000  4.6  0.8
    211    2    -2.9619   -57.5836    18.0630     15   0.80   0.00000   0.00000   0.00000  4.6  0.8
    212    3    -3.9203   -58.1311    16.3008     15  -0.80   0.00000   0.00000   0.00000  4.9  1.5
    213    4    -3.9448   -58.1294    13.7254     15   0.00   0.21860  -0.01239   0.35419  4.7  1.1
    214    5    -5.8166   -58.4037    12.0072     15   0.00  -0.07484   0.51444   0.02600  4.7  1.1
    215    6    -5.8238   -58.0057     9.7010     15   0.00   0.00000   0.00000   0.00000  4.6  0.8
    216    6    -5.8127   -58.1340     7.4711     15   0.00   0.00000   0.00000   0.00000  4.6  0.8
    217    6    -5.8044   -57.9966     5.5085     15   0.00   0.00000   0.00000   0.00000  4.6  0.8
    218    6    -5.8082   -58.2016     3.0244     15   0.00   0.00000   0.00000   0.00000  4.6  0.8
    219    6    -5.8572   -58.3273     1.4423     15   0.00   0.00000   0.00000   0.00000  4.6  0.8
    220    5    -1.9450   -57.9051    12.0494     15   0.00   0.34753  -0.16157   0.35219  4.7  1.1
    221    6    -1.9376   -58.2658     9.7294     15   0.00   0.00000   0.00000   0.00000  4.6  0.8
    222    6    -1.9341   -58.2059     7.4920     15   0.00   0.00000   0.00000   0.00000  4.6  0.8
    223    6    -1.9308   -58.3631     5.5192     15   0.00   0.00000   0.00000   0.00000  4.6  0.8
    224    6    -1.9426   -57.9192     3.0249     15   0.00   0.00000   0.00000   0.00000  4.6  0.8
    225    6    -1.9078   -58.1510     1.4401     15   0.00   0.00000   0.00000   0.00000  4.6  0.8
    226    2    -2.9981   -57.6072   -18.0945     16   0.80   0.00000   0.00000   0.00000  4.6  0.8
    227    3    -3.9274   -58.0962   -16.2447     16  -0.80   0.00000   0.00000   0.00000  4.9  1.5
    228    4    -4.0109   -58.1690   -13.7544     16   0.00  -0.29760  -0.00970  -0.29108  4.7  1.1
    229    5    -4.1010   -60.0545   -11.9859     16   0.00  -0.28800  -0.43278   0.02602  4.7  1.1
    230    6    -3.8593   -60.0699    -9.7442     16   0.00   0.00000   0.00000   0.00000  4.6  0.8
    231    6    -3.6292   -60.0689    -7.4569     16   0.00   0.00000   0.00000   0.00000  4.6  0.8
    232    6    -3.8548   -60.0584    -5.5677     16   0.00   0.00000   0.00000   0.00000  4.6  0.8
    233    6    -3.8168   -60.0514    -3.0054     16   0.00   0.00000   0.00000   0.00000  4.6  0.8
    234    6    -3.8434   -60.0939    -1.5133     16   0.00   0.00000   0.00000   0.00000  4.6  0.8
    235    5    -3.5981   -56.1774   -12.0229     16   0.00  -0.26483  -0.43097  -0.12270  4.7  1.1
    236    6    -3.7043   -56.1829    -9.7230     16   0.00   0.00000   0.00000   0.00000  4.6  0.8
    237    6    -3.9705   -56.1914    -7.5046     16   0.00   0.00000   0.00000   0.00000  4.6  0.8
    238    6    -4.0197   -56.1839    -5.5029     16   0.00   0.00000   0.00000   0.00000  4.6  0.8
    239    6    -3.9435   -56.1858    -3.0524     16   0.00   0.00000   0.00000   0.00000  4.6  0.8
    240    6    -3.9445   -56.1464    -1.3966     16   0.00   0.00000   0.00000   0.00000  4.6  0.8
    241    2     3.1765   -57.2529    17.9637     17   0.80   0.00000   0.00000   0.00000  4.6  0.8
    242    3     3.8815   -58.1716    16.2663     17  -0.80   0.00000   0.00000   0.00000  4.9  1.5
    243    4     3.9572   -58.1698    13.7031     17   0.00   0.26039   0.27950   0.16573  4.7  1.1
    244    5     1.9284   -58.2175    11.9863     17   0.00  -0.05555   0.51752   0.00313  4.7  1.1
    245    6     1.9282   -57.9591     9.7252     17   0.00   0.00000   0.00000   0.00000  4.6  0.8
    246    6     1.9400   -58.0151     7.4532     17   0.00   0.00000   0.00000   0.00000  4.6  0.8
    247    6     1.9387   -57.8773     5.5178     17   0.00   0.00000   0.00000   0.00000  4.6  0.8
    248    6     1.9377   -58.2973     2.9965     17   0.00   0.00000   0.00000   0.00000  4.6  0.8
    249    6     1.8948   -57.9791     1.4391     17   0.00   0.00000   0.00000   0.00000  4.6  0.8
    250    5     5.8174   -58.0441    12.0039     17   0.00   0.15096  -0.16634   0.46954  4.7  1.1
    251    6     5.8220   -58.1572     9.6911     17   0.00   0.00000   0.00000   0.00000  4.6  0.8
    252    6     5.8183   -58.1391     7.4686     17   0.00   0.00000   0.00000   0.00000  4.6  0.8
    253    6     5.8086   -58.3756     5.5032     17   0.00   0.00000   0.00000   0.00000  4.6  0.8
    254    6     5.8066   -58.1845     3.0140     17   0.00   0.00000   0.00000   0.00000  4.6  0.8
    255    6     5.8495   -58.1881     1.4379     17   0.00   0.00000   0.00000   0.00000  4.6  0.8
    256    2     3.2071   -57.6286   -17.9538     18   0.80   0.00000   0.00000   0.00000  4.6  0.8
    257    3     3.8292   -58.0499   -16.2999     18  -0.80   0.00000   0.00000   0.00000  4.9  1.5
    258    4     3.8537   -58.1982   -13.7087     18   0.00  -0.33533  -0.13690   0.20542  4.7  1.1
    259    5     3.9992   -60.0737   -12.0492     18   0.00  -0.21530   0.24118   0.40792  4.7  1.1
    260    6     4.0474   -60.0754    -9.6901     18   0.00   0.00000   0.00000   0.00000  4.6  0.8
    261    6     3.7649   -60.0665    -7.4909     18   0.00   0.00000   0.00000   0.00000  4.6  0.8
    262    6     3.8500   -60.0607    -5.4938     18   0.00   0.00000   0.00000   0.00000  4.6  0.8
    263    6     3.7489   -60.0620    -3.0258     18   0.00   0.00000   0.00000   0.00000  4.6  0.8
    264    6     3.7597   -60.1054    -1.4140     18   0.00   0.00000   0.00000   0.00000  4.6  0.8
    265    5     3.9861   -56.1870   -12.0340     18   0.00   0.24209   0.29106  -0.35720  4.7  1.1
    266    6     3.9350   -56.1866    -9.7375     18   0.00   0.00000   0.00000   0.00000  4.6  0.8
    267    6     3.9423   -56.1932    -7.5028     18   0.00   0.00000   0.00000   0.00000  4.6  0.8
    268    6     4.1351   -56.1885    -5.5455     18   0.00   0.00000   0.00000   0.00000  4.6  0.8
    269    6     3.7646   -56.1932    -3.0456     18   0.00   0.00000   0.00000   0.00000  4.6  0.8
    270    6     3.9968   -56.1566    -1.4762     18   0.00   0.00000   0.00000   0.00000  4.6  0.8
    271    2    12.4524   -57.0169    17.8284     19   0.80   0.00000   0.00000   0.00000  4.6  0.8
    272    3    11.5796   -58.1310    16.2606     19  -0.80   0.00000   0.00000   0.00000  4.9  1.5
    273    4    11.6182   -58.2542    13.7196     19   0.00   0.34840  -0.19840  -0.11245  4.7  1.1
    274    5     9.6890   -58.0776    11.9813     19   0.00   0.44852   0.25712  -0.06031  4.7  1.1
    275    6     9.6863   -58.2297     9.7082     19   0.00   0.00000   0.00000   0.00000  4.6  0.8
    276    6     9.6904   -57.8951     7.4412     19   0.00   0.00000   0.00000   0.00000  4.6  0.8
    277    6     9.6892   -57.9341     5.4998     19   0.00   0.00000   0.00000   0.00000  4.6  0.8
    278    6     9.6951   -58.1807     3.0008     19   0.00   0.00000   0.00000   0.00000  4.6  0.8
    279    6     9.6500   -57.9584     1.4276     19   0.00   0.00000   0.00000   0.00000  4.6  0.8
    280    5    13.5770   -58.3118    12.0936     19   0.00  -0.21247  -0.44415   0.16886  4.7  1.1
    281    6    13.5673   -57.8784     9.6765     19   0.00   0.00000   0.00000   0.00000  4.6  0.8
    282    6    13.5523   -58.2669     7.5272     19   0.00   0.00000   0.00000   0.00000  4.6  0.8
    283    6    13.5592   -58.3926     5.4835     19   0.00   0.00000   0.00000   0.00000  4.6  0.8
    284    6    13.5607   -58.1669     3.0596     19   0.00   0.00000   0.00000   0.00000  4.6  0.8
    285    6    13.6096   -58.2240     1.4295     19   0.00   0.00000   0.00000   0.00000  4.6  0.8
    286    2    12.4960   -56.9264   -17.7232     20   0.80   0.00000   0.00000   0.00000  4.6  0.8
    287    3    11.6043   -58.2113   -16.3029     20  -0.80   0.00000   0.00000   0.00000  4.9  1.5
    288    4    11.5296   -58.2359   -13.6990     20   0.00   0.05907   0.19130   0.36511  4.7  1.1
    289    5    11.6853   -60.0597   -11.9307     20   0.00   0.19649   0.09069   0.47338  4.7  1.1
    290    6    11.6166   -60.0607    -9.6621     20   0.00   0.00000   0.00000   0.00000  4.6  0.8
    291    6    11.8936   -60.0635    -7.4167     20   0.00   0.00000   0.00000   0.00000  4.6  0.8
    292    6    11.5520   -60.0652    -5.4557     20   0.00   0.00000   0.00000   0.00000  4.6  0.8
    293    6    11.5643   -60.0618    -2.9877     20   0.00   0.00000   0.00000   0.00000  4.6  0.8
    294    6    11.5055   -60.1060    -1.3913     20   0.00   0.00000   0.00000   0.00000  4.6  0.8
    295    5    11.4394   -56.1724   -12.0695     20   0.00  -0.15234  -0.30173   0.39581  4.7  1.1
    296    6    11.8514   -56.1713    -9.7133     20   0.00   0.00000   0.00000   0.00000  4.6  0.8