LAMMPS 'data.' description - created with Brahms (www.personal.soton.ac.uk/orsi/brahms)

       15 atoms
       14 bonds
       16 angles

        6 atom types
        5 bond types
        5 angle types

    -60 60      xlo xhi
    -60 60      ylo yhi
    -60 60      zlo zhi

Atoms

      1    2   -13.9712    13.0559    19.6404      1   0.70   0.00000   0.00000   0.00000  5.2  1.2
      2    3   -14.6009    15.3993    19.7104      1  -0.70   0.00000   0.00000   0.00000  5.2  1.2
      3    4   -12.8854    15.4558    16.0258      1   0.00   0.19644   0.24098   0.11962  4.6  1.2
      4    5   -10.8199    15.0688    14.8068      1   0.00  -0.28967   0.24862  -0.16633  4.6  1.2
      5    6   -11.5319    12.9617    13.7752      1   0.00   0.00000   0.00000   0.00000  4.5  0.9
      6    6   -10.4277     9.9109    13.3017      1   0.00   0.00000   0.00000   0.00000  4.5  0.9
      7    6   -10.0885     9.1629    10.1795      1   0.00   0.00000   0.00000   0.00000  4.5  0.9
      8    6    -8.5625     6.0258     7.9762      1   0.00   0.00000   0.00000   0.00000  4.5  0.9
      9    6    -9.8881     3.2707     5.5164      1   0.00   0.00000   0.00000   0.00000  4.5  0.9
     10    5   -13.5217    12.6389    12.8725      1   0.00  -0.10522  -0.23702  -0.32579  4.6  1.2
     11    6   -13.1668    10.3017     9.3256      1   0.00   0.00000   0.00000   0.00000  4.5  0.9
     12    6   -15.2833     7.9776     6.9728      1   0.00   0.00000   0.00000   0.00000  4.5  0.9
     13    6   -16.5461     4.5129     7.4262      1   0.00   0.00000   0.00000   0.00000  4.5  0.9
     14    6   -15.9756     0.9188     5.5304      1   0.00   0.00000   0.00000   0.00000  4.5  0.9
     15    6   -16.4440     3.4398     6.4550      1   0.00   0.00000   0.00000   0.00000  4.5  0.9

Bonds

      1    1       1       2
      2    2       2       3
      3    3       3       4
      4    3       3      10
      5    4       4       5
      6    5       5       6
      7    5       6       7
      8    5       7       8
      9    5       8       9
     10    4      10      11
     11    5      11      12
     12    5      12      13
     13    5      13      14
     14    5      14      15

Angles

      1    1       1       2       3
      2    2       2       3       4
      3    2       2       3      10
      4    3       3       4       5
      5    3       4       5       6
      6    4       5       6       7
      7    3       6       7       8
      8    3       7       8       9
      9    3       3      10      11
     10    3      10      11      12
     11    4      11      12      13
     12    3      12      13      14
     13    3      13      14      15
     14    5       3	   1       1		
     15    5       4	   6       6		
     16    5      10	  12      12		
