LAMMPS 'data.' description - created with Brahms (www.personal.soton.ac.uk/orsi/brahms)

    18570 atoms
     7168 bonds
     8192 angles

        6 atom types
        5 bond types
        5 angle types

       -49.25        49.25      xlo xhi
       -49.25        49.25      ylo yhi
       -49.25        49.25      zlo zhi

Atoms

      1    2   -47.1932   -20.3988   -48.2854      1   0.70   0.00000   0.00000   0.00000  4.5  0.9
      2    3   -48.8797   -16.2701   -48.7877      1  -0.70   0.00000   0.00000   0.00000  5.2  1.2
      3    4    47.3073   -14.3882    48.0161      1   0.00   0.16336   0.12301  -0.26297  4.6  1.2
      4    5    46.4393   -12.4335    47.1127      1   0.00   0.37839   0.13107  -0.11414  4.6  1.2
      5    6    47.9897    -9.0182    44.6128      1   0.00   0.00000   0.00000   0.00000  4.5  0.9
      6    6    49.2146    -5.6462    44.2021      1   0.00   0.00000   0.00000   0.00000  4.5  0.9
      7    6   -45.1509    -6.5575    45.0640      1   0.00   0.00000   0.00000   0.00000  4.5  0.9
      8    6   -42.6817    -7.3537    47.4357      1   0.00   0.00000   0.00000   0.00000  4.5  0.9
      9    6   -38.3323    -8.1744    49.1326      1   0.00   0.00000   0.00000   0.00000  4.5  0.9
     10    5    43.7891   -16.9320    46.4386      1   0.00  -0.14825   0.21598  -0.32367  4.6  1.2
     11    6    43.5815   -19.9744    45.1571      1   0.00   0.00000   0.00000   0.00000  4.5  0.9
     12    6    41.6663   -23.4214    44.7881      1   0.00   0.00000   0.00000   0.00000  4.5  0.9
     13    6    41.7580   -24.3994    47.2305      1   0.00   0.00000   0.00000   0.00000  4.5  0.9
     14    6    40.4355   -25.1279   -47.6437      1   0.00   0.00000   0.00000   0.00000  4.5  0.9
     15    6    39.3635   -24.0978   -43.7678      1   0.00   0.00000   0.00000   0.00000  4.5  0.9
     16    2   -47.2999   -32.5453    -7.6057      2   0.70   0.00000   0.00000   0.00000  4.5  0.9
     17    3    47.7221   -29.9402    -4.5347      2  -0.70   0.00000   0.00000   0.00000  5.2  1.2
     18    4    44.5393   -29.9857    -6.0860      2   0.00   0.26730   0.18779   0.06522  4.6  1.2
     19    5    42.5801   -31.5675    -4.6672      2   0.00   0.35131   0.05250   0.21728  4.6  1.2
     20    6    40.5842   -32.3221    -1.3105      2   0.00   0.00000   0.00000   0.00000  4.5  0.9
     21    6    40.2724   -35.5365     0.4864      2   0.00   0.00000   0.00000   0.00000  4.5  0.9
     22    6    35.8257   -36.4846     0.6761      2   0.00   0.00000   0.00000   0.00000  4.5  0.9
     23    6    33.3919   -38.1510     2.6102      2   0.00   0.00000   0.00000   0.00000  4.5  0.9
     24    6    31.8076   -41.5884     4.0272      2   0.00   0.00000   0.00000   0.00000  4.5  0.9
     25    5    44.0234   -30.7851    -9.2621      2   0.00  -0.10798  -0.10364  -0.38857  4.6  1.2
     26    6    45.1748   -33.4549   -12.1261      2   0.00   0.00000   0.00000   0.00000  4.5  0.9
     27    6    45.8926   -34.3415   -14.9396      2   0.00   0.00000   0.00000   0.00000  4.5  0.9
     28    6    43.5364   -36.0666   -16.8325      2   0.00   0.00000   0.00000   0.00000  4.5  0.9
     29    6    41.1205   -36.3881   -17.5628      2   0.00   0.00000   0.00000   0.00000  4.5  0.9
     30    6    38.6725   -37.9294   -19.6483      2   0.00   0.00000   0.00000   0.00000  4.5  0.9
     31    2   -35.1301    45.4999    12.5641      3   0.70   0.00000   0.00000   0.00000  4.5  0.9
     32    3   -36.4030    47.9433     8.4043      3  -0.70   0.00000   0.00000   0.00000  5.2  1.2
     33    4   -37.4695   -47.5156    10.1228      3   0.00  -0.24879  -0.03655  -0.21849  4.6  1.2
     34    5   -36.4454   -44.4967     8.4570      3   0.00   0.38982   0.04500  -0.13929  4.6  1.2
     35    6   -35.0031   -41.1930     7.8792      3   0.00   0.00000   0.00000   0.00000  4.5  0.9
     36    6   -36.0826   -38.9381     5.7180      3   0.00   0.00000   0.00000   0.00000  4.5  0.9
     37    6   -35.1582   -35.1841     4.3972      3   0.00   0.00000   0.00000   0.00000  4.5  0.9
     38    6   -32.6481   -34.9411     4.2947      3   0.00   0.00000   0.00000   0.00000  4.5  0.9
     39    6   -29.9727   -33.4400     2.5156      3   0.00   0.00000   0.00000   0.00000  4.5  0.9
     40    5   -38.0217   -44.9183    13.6049      3   0.00  -0.06461   0.23038  -0.34079  4.6  1.2
     41    6   -39.5285   -45.6089    16.2956      3   0.00   0.00000   0.00000   0.00000  4.5  0.9
     42    6   -41.9264   -47.2748    17.3565      3   0.00   0.00000   0.00000   0.00000  4.5  0.9
     43    6   -44.6996   -47.0788    16.6167      3   0.00   0.00000   0.00000   0.00000  4.5  0.9
     44    6   -46.4673    49.1048    14.7595      3   0.00   0.00000   0.00000   0.00000  4.5  0.9
     45    6   -46.3261    47.3385    12.3463      3   0.00   0.00000   0.00000   0.00000  4.5  0.9
     46    2   -40.8572   -41.3325   -18.9961      4   0.70   0.00000   0.00000   0.00000  4.5  0.9
     47    3   -40.7980   -45.4304   -16.3463      4  -0.70   0.00000   0.00000   0.00000  5.2  1.2
     48    4   -43.9603   -45.5399   -15.7620      4   0.00   0.04130   0.28276   0.17120  4.6  1.2
     49    5   -46.0770   -45.8224   -17.9366      4   0.00  -0.14616  -0.38767  -0.04165  4.6  1.2
     50    6   -48.1937   -47.1759   -19.0101      4   0.00   0.00000   0.00000   0.00000  4.5  0.9
     51    6    48.2378   -48.1823   -20.4470      4   0.00   0.00000   0.00000   0.00000  4.5  0.9
     52    6    46.6957    48.0462   -20.4332      4   0.00   0.00000   0.00000   0.00000  4.5  0.9
     53    6    43.7910    47.6719   -18.7487      4   0.00   0.00000   0.00000   0.00000  4.5  0.9
     54    6    41.2195    46.4085   -20.1082      4   0.00   0.00000   0.00000   0.00000  4.5  0.9
     55    5   -45.9340   -45.7024   -12.0052      4   0.00  -0.03581   0.07217   0.40853  4.6  1.2
     56    6   -48.7915   -45.5726   -10.6165      4   0.00   0.00000   0.00000   0.00000  4.5  0.9
     57    6    48.6316   -44.2795    -7.1994      4   0.00   0.00000   0.00000   0.00000  4.5  0.9
     58    6    49.0671   -46.3359    -4.6023      4   0.00   0.00000   0.00000   0.00000  4.5  0.9
     59    6    49.2352    48.5027    -4.5603      4   0.00   0.00000   0.00000   0.00000  4.5  0.9
     60    6   -48.4929    44.7690    -5.6301      4   0.00   0.00000   0.00000   0.00000  4.5  0.9
     61    2   -30.8805   -28.7100    35.2045      5   0.70   0.00000   0.00000   0.00000  4.5  0.9
     62    3   -29.3112   -31.0839    40.4754      5  -0.70   0.00000   0.00000   0.00000  5.2  1.2
     63    4   -28.2869   -34.1187    39.4361      5   0.00   0.01304   0.19620   0.26890  4.6  1.2
     64    5   -25.4317   -37.1455    41.1912      5   0.00   0.14590  -0.09747   0.37763  4.6  1.2
     65    6   -26.5237   -40.7565    42.9575      5   0.00   0.00000   0.00000   0.00000  4.5  0.9
     66    6   -29.9028   -42.1818    45.1574      5   0.00   0.00000   0.00000   0.00000  4.5  0.9
     67    6   -32.3586   -45.6017    45.6308      5   0.00   0.00000   0.00000   0.00000  4.5  0.9
     68    6   -33.0904   -47.7741    43.9041      5   0.00   0.00000   0.00000   0.00000  4.5  0.9
     69    6   -31.5188    47.4336    42.1102      5   0.00   0.00000   0.00000   0.00000  4.5  0.9
     70    5   -29.9865   -37.3545    41.1919      5   0.00  -0.20962  -0.31993  -0.16459  4.6  1.2
     71    6   -30.6813   -41.7227    40.6190      5   0.00   0.00000   0.00000   0.00000  4.5  0.9
     72    6   -33.5770   -43.6056    40.9063      5   0.00   0.00000   0.00000   0.00000  4.5  0.9
     73    6   -37.0724   -42.7966    39.2245      5   0.00   0.00000   0.00000   0.00000  4.5  0.9
     74    6   -38.8354   -42.7995    36.3808      5   0.00   0.00000   0.00000   0.00000  4.5  0.9
     75    6   -39.6044   -44.5010    33.5247      5   0.00   0.00000   0.00000   0.00000  4.5  0.9
     76    2   -49.1537   -46.4514   -30.4945      6   0.70   0.00000   0.00000   0.00000  4.5  0.9
     77    3   -46.0166   -43.3389   -31.4944      6  -0.70   0.00000   0.00000   0.00000  5.2  1.2
     78    4   -46.4363   -43.2606   -34.3680      6   0.00   0.13170  -0.28195  -0.11886  4.6  1.2
     79    5   -43.9752   -45.5609   -36.6175      6   0.00  -0.37152  -0.14250   0.12270  4.6  1.2
     80    6   -44.1693   -47.7006   -38.1460      6   0.00   0.00000   0.00000   0.00000  4.5  0.9
     81    6   -41.1984   -49.1666   -39.2778      6   0.00   0.00000   0.00000   0.00000  4.5  0.9
     82    6   -39.2819   -47.1486   -39.6073      6   0.00   0.00000   0.00000   0.00000  4.5  0.9
     83    6   -35.3535   -46.8138   -39.0532      6   0.00   0.00000   0.00000   0.00000  4.5  0.9
     84    6   -32.9627   -44.0074   -39.5956      6   0.00   0.00000   0.00000   0.00000  4.5  0.9
     85    5   -47.6874   -42.6732   -38.1134      6   0.00   0.41027   0.06369   0.03173  4.6  1.2
     86    6   -45.4736   -43.4915   -41.1153      6   0.00   0.00000   0.00000   0.00000  4.5  0.9
     87    6   -42.2430   -43.2702   -42.5529      6   0.00   0.00000   0.00000   0.00000  4.5  0.9
     88    6   -39.9926   -44.3278   -45.7330      6   0.00   0.00000   0.00000   0.00000  4.5  0.9
     89    6   -38.9310   -47.7834   -47.3424      6   0.00   0.00000   0.00000   0.00000  4.5  0.9
     90    6   -37.7557    47.9402   -48.5591      6   0.00   0.00000   0.00000   0.00000  4.5  0.9
     91    2   -38.6227    25.6892     5.8356      7   0.70   0.00000   0.00000   0.00000  4.5  0.9
     92    3   -43.3533    25.6338     3.3697      7  -0.70   0.00000   0.00000   0.00000  5.2  1.2
     93    4   -41.4593    26.2982     0.8327      7   0.00  -0.20867   0.15138  -0.21098  4.6  1.2
     94    5   -40.8636    28.5777    -3.1459      7   0.00   0.11931   0.23063   0.32552  4.6  1.2
     95    6   -38.6986    31.3257    -3.6765      7   0.00   0.00000   0.00000   0.00000  4.5  0.9
     96    6   -35.5743    30.1390    -1.5776      7   0.00   0.00000   0.00000   0.00000  4.5  0.9
     97    6   -33.3803    32.9656    -1.6965      7   0.00   0.00000   0.00000   0.00000  4.5  0.9
     98    6   -31.0876    34.4799     0.2289      7   0.00   0.00000   0.00000   0.00000  4.5  0.9
     99    6   -30.2019    37.9249     0.3923      7   0.00   0.00000   0.00000   0.00000  4.5  0.9
    100    5   -38.6474    26.8320     0.4949      7   0.00  -0.14481  -0.25110  -0.29894  4.6  1.2
    101    6   -36.4756    25.4236    -2.5982      7   0.00   0.00000   0.00000   0.00000  4.5  0.9
    102    6   -38.4812    23.7210    -5.6812      7   0.00   0.00000   0.00000   0.00000  4.5  0.9
    103    6   -40.4299    25.3799    -7.0406      7   0.00   0.00000   0.00000   0.00000  4.5  0.9
    104    6   -43.6449    25.9586    -5.8722      7   0.00   0.00000   0.00000   0.00000  4.5  0.9
    105    6   -46.6304    27.1648    -4.2216      7   0.00   0.00000   0.00000   0.00000  4.5  0.9
    106    2    -1.6123   -45.3595   -44.0220      8   0.70   0.00000   0.00000   0.00000  4.5  0.9
    107    3    -4.4518   -47.0335   -47.9735      8  -0.70   0.00000   0.00000   0.00000  5.2  1.2
    108    4    -6.8848   -45.9933   -49.0827      8   0.00   0.26213   0.15923   0.13000  4.6  1.2
    109    5    -7.8212   -48.6572    45.8003      8   0.00  -0.27944   0.25867  -0.16850  4.6  1.2
    110    6    -9.1942    47.8697    43.4630      8   0.00   0.00000   0.00000   0.00000  4.5  0.9
    111    6   -12.5391    46.7194    43.3164      8   0.00   0.00000   0.00000   0.00000  4.5  0.9
    112    6   -15.7309    46.1859    41.8244      8   0.00   0.00000   0.00000   0.00000  4.5  0.9
    113    6   -16.3146    44.5685    38.5070      8   0.00   0.00000   0.00000   0.00000  4.5  0.9
    114    6   -15.4350    40.8232    37.6709      8   0.00   0.00000   0.00000   0.00000  4.5  0.9
    115    5    -9.6853   -46.2889   -48.6990      8   0.00   0.06490   0.09203   0.40088  4.6  1.2
    116    6   -12.8678   -46.4524   -48.2266      8   0.00   0.00000   0.00000   0.00000  4.5  0.9
    117    6   -16.0384   -46.9468    49.0941      8   0.00   0.00000   0.00000   0.00000  4.5  0.9
    118    6   -17.3742   -43.9427   -49.0173      8   0.00   0.00000   0.00000   0.00000  4.5  0.9
    119    6   -18.7498   -40.4806    47.0803      8   0.00   0.00000   0.00000   0.00000  4.5  0.9
    120    6   -21.5805   -39.1249    44.4138      8   0.00   0.00000   0.00000   0.00000  4.5  0.9
    121    2    29.9507   -37.1978   -47.9071      9   0.70   0.00000   0.00000   0.00000  4.5  0.9
    122    3    29.2240   -40.1725    46.4840      9  -0.70   0.00000   0.00000   0.00000  5.2  1.2
    123    4    30.8228   -43.3026    47.4495      9   0.00   0.11010   0.18175  -0.25655  4.6  1.2
    124    5    32.0522   -44.2497   -47.8431      9   0.00   0.17840  -0.37618   0.00718  4.6  1.2
    125    6    33.9801   -45.8037   -43.5630      9   0.00   0.00000   0.00000   0.00000  4.5  0.9
    126    6    37.2943   -46.1475   -40.9253      9   0.00   0.00000   0.00000   0.00000  4.5  0.9
    127    6    39.7358   -43.1878   -40.1392      9   0.00   0.00000   0.00000   0.00000  4.5  0.9
    128    6    43.3761   -43.0258   -42.2497      9   0.00   0.00000   0.00000   0.00000  4.5  0.9
    129    6    45.8487   -43.3950   -45.0393      9   0.00   0.00000   0.00000   0.00000  4.5  0.9
    130    5    33.8982   -45.4152    46.3657      9   0.00   0.24818  -0.27991  -0.18288  4.6  1.2
    131    6    35.7307   -48.1292    45.8087      9   0.00   0.00000   0.00000   0.00000  4.5  0.9
    132    6    37.4759    48.8276    45.2889      9   0.00   0.00000   0.00000   0.00000  4.5  0.9
    133    6    39.6195    48.7123    48.0500      9   0.00   0.00000   0.00000   0.00000  4.5  0.9
    134    6    41.7379    48.3174   -48.4121      9   0.00   0.00000   0.00000   0.00000  4.5  0.9
    135    6    44.7707   -48.6703   -46.3017      9   0.00   0.00000   0.00000   0.00000  4.5  0.9
    136    2   -24.3295   -37.6902    -0.9055     10   0.70   0.00000   0.00000   0.00000  4.5  0.9
    137    3   -22.6967   -41.9088    -3.6956     10  -0.70   0.00000   0.00000   0.00000  5.2  1.2
    138    4   -19.3757   -44.6438    -4.8867     10   0.00   0.05559   0.30422  -0.12381  4.6  1.2
    139    5   -17.3360   -46.7664    -3.5662     10   0.00   0.13055  -0.19965  -0.34130  4.6  1.2
    140    6   -18.2769    47.2912    -3.2545     10   0.00   0.00000   0.00000   0.00000  4.5  0.9
    141    6   -17.1675    43.1525    -2.3048     10   0.00   0.00000   0.00000   0.00000  4.5  0.9
    142    6   -19.8050    42.8139    -0.4372     10   0.00   0.00000   0.00000   0.00000  4.5  0.9
    143    6   -22.0701    45.1836    -0.8262     10   0.00   0.00000   0.00000   0.00000  4.5  0.9
    144    6   -23.0984    45.9921    -5.2331     10   0.00   0.00000   0.00000   0.00000  4.5  0.9
    145    5   -19.6575   -46.3490    -8.0711     10   0.00   0.07926   0.13028  -0.38747  4.6  1.2
    146    6   -18.7700   -48.2095   -11.3715     10   0.00   0.00000   0.00000   0.00000  4.5  0.9
    147    6   -19.3906    48.2871   -14.4735     10   0.00   0.00000   0.00000   0.00000  4.5  0.9
    148    6   -15.8179    45.0222   -15.6411     10   0.00   0.00000   0.00000   0.00000  4.5  0.9
    149    6   -15.1578    41.3405   -15.3658     10   0.00   0.00000   0.00000   0.00000  4.5  0.9
    150    6   -14.4668    38.8858   -17.4558     10   0.00   0.00000   0.00000   0.00000  4.5  0.9
    151    2   -39.7342    34.1810   -46.7207     11   0.70   0.00000   0.00000   0.00000  4.5  0.9
    152    3   -38.8917    36.8338    46.4126     11  -0.70   0.00000   0.00000   0.00000  5.2  1.2
    153    4   -35.9586    33.8410    45.7868     11   0.00  -0.02391  -0.27847   0.18125  4.6  1.2
    154    5   -32.3406    32.8885    47.4974     11   0.00   0.07684  -0.40731   0.03975  4.6  1.2
    155    6   -29.7337    32.3804    49.1637     11   0.00   0.00000   0.00000   0.00000  4.5  0.9
    156    6   -26.8745    32.5962   -46.7938     11   0.00   0.00000   0.00000   0.00000  4.5  0.9
    157    6   -23.9145    32.1227   -48.3933     11   0.00   0.00000   0.00000   0.00000  4.5  0.9
    158    6   -21.9252    34.3055    46.8006     11   0.00   0.00000   0.00000   0.00000  4.5  0.9
    159    6   -20.5238    37.2026    44.9879     11   0.00   0.00000   0.00000   0.00000  4.5  0.9
    160    5   -34.7619    31.7087    43.3489     11   0.00  -0.07357  -0.39967   0.09078  4.6  1.2
    161    6   -33.9567    30.7974    39.2855     11   0.00   0.00000   0.00000   0.00000  4.5  0.9
    162    6   -32.6487    30.6839    36.1764     11   0.00   0.00000   0.00000   0.00000  4.5  0.9
    163    6   -34.1877    33.7611    35.1076     11   0.00   0.00000   0.00000   0.00000  4.5  0.9
    164    6   -37.6509    34.4894    35.8774     11   0.00   0.00000   0.00000   0.00000  4.5  0.9
    165    6   -39.8081    35.7270    38.2839     11   0.00   0.00000   0.00000   0.00000  4.5  0.9
    166    2    -5.6086   -41.8946     3.1538     12   0.70   0.00000   0.00000   0.00000  4.5  0.9
    167    3    -2.8880   -47.3039     2.9705     12  -0.70   0.00000   0.00000   0.00000  5.2  1.2
    168    4    -4.6662    48.2550     5.7003     12   0.00  -0.32368   0.07810   0.01015  4.6  1.2
    169    5    -1.9439    47.6029     8.5465     12   0.00   0.03641   0.30315   0.28313  4.6  1.2
    170    6    -0.6634    48.7076    10.4723     12   0.00   0.00000   0.00000   0.00000  4.5  0.9
    171    6    -0.0294   -47.2691    13.1600     12   0.00   0.00000   0.00000   0.00000  4.5  0.9
    172    6     1.6923   -45.3641    15.5227     12   0.00   0.00000   0.00000   0.00000  4.5  0.9
    173    6     1.1678   -41.3536    13.4636     12   0.00   0.00000   0.00000   0.00000  4.5  0.9
    174    6     1.9764   -39.4737    10.4756     12   0.00   0.00000   0.00000   0.00000  4.5  0.9
    175    5    -7.3803    44.9327     6.5310     12   0.00  -0.17824  -0.37593   0.01730  4.6  1.2
    176    6   -10.9057    43.1076     7.6958     12   0.00   0.00000   0.00000   0.00000  4.5  0.9
    177    6   -13.5834    42.0058     7.1703     12   0.00   0.00000   0.00000   0.00000  4.5  0.9
    178    6   -15.4637    41.0692     4.1135     12   0.00   0.00000   0.00000   0.00000  4.5  0.9
    179    6   -15.3738    41.4864     1.4829     12   0.00   0.00000   0.00000   0.00000  4.5  0.9
    180    6   -13.6403    40.0558    -0.8685     12   0.00   0.00000   0.00000   0.00000  4.5  0.9
    181    2   -10.5920    37.9604    48.4159     13   0.70   0.00000   0.00000   0.00000  4.5  0.9
    182    3    -8.3280    43.0195   -49.0741     13  -0.70   0.00000   0.00000   0.00000  5.2  1.2
    183    4    -9.8693    44.7053   -46.3467     13   0.00   0.23721  -0.21212  -0.09850  4.6  1.2
    184    5    -8.1514    45.8769   -42.8379     13   0.00  -0.15146  -0.29533   0.25145  4.6  1.2
    185    6    -7.5078    44.4304   -39.4112     13   0.00   0.00000   0.00000   0.00000  4.5  0.9
    186    6    -4.3695    42.4730   -38.3074     13   0.00   0.00000   0.00000   0.00000  4.5  0.9
    187    6    -5.7449    38.8122   -37.2344     13   0.00   0.00000   0.00000   0.00000  4.5  0.9
    188    6    -8.1230    37.1400   -35.5461     13   0.00   0.00000   0.00000   0.00000  4.5  0.9
    189    6   -10.8959    34.6575   -35.3113     13   0.00   0.00000   0.00000   0.00000  4.5  0.9
    190    5   -11.6430    47.9132   -46.2183     13   0.00  -0.19703  -0.14417   0.33732  4.6  1.2
    191    6   -12.6063    48.7759   -43.8878     13   0.00   0.00000   0.00000   0.00000  4.5  0.9
    192    6   -15.2894   -48.3209   -41.5431     13   0.00   0.00000   0.00000   0.00000  4.5  0.9
    193    6   -13.5622   -47.8565   -38.6518     13   0.00   0.00000   0.00000   0.00000  4.5  0.9
    194    6   -11.6518   -46.1135   -36.5571     13   0.00   0.00000   0.00000   0.00000  4.5  0.9
    195    6   -10.2168   -43.7912   -36.1549     13   0.00   0.00000   0.00000   0.00000  4.5  0.9
    196    2     4.6451    43.6749    16.3193     14   0.70   0.00000   0.00000   0.00000  4.5  0.9
    197    3     3.3506    40.8792    20.1872     14  -0.70   0.00000   0.00000   0.00000  5.2  1.2
    198    4     3.6240    37.8288    18.9311     14   0.00   0.11510   0.12545  -0.28632  4.6  1.2
    199    5     5.9687    36.3167    17.5961     14   0.00   0.17635   0.26097  -0.27237  4.6  1.2
    200    6     9.6123    37.7755    17.1892     14   0.00   0.00000   0.00000   0.00000  4.5  0.9
    201    6    12.2233    37.0890    16.2267     14   0.00   0.00000   0.00000   0.00000  4.5  0.9
    202    6    13.1434    40.1917    15.1648     14   0.00   0.00000   0.00000   0.00000  4.5  0.9
    203    6    16.2308    42.2637    15.3134     14   0.00   0.00000   0.00000   0.00000  4.5  0.9
    204    6    17.5555    45.3608    15.4607     14   0.00   0.00000   0.00000   0.00000  4.5  0.9
    205    5     1.8419    34.3345    18.6382     14   0.00  -0.00533  -0.26847  -0.31825  4.6  1.2
    206    6     2.5433    30.2243    18.9806     14   0.00   0.00000   0.00000   0.00000  4.5  0.9
    207    6     1.4573    27.2728    20.0414     14   0.00   0.00000   0.00000   0.00000  4.5  0.9
    208    6     3.0202    25.1082    21.4391     14   0.00   0.00000   0.00000   0.00000  4.5  0.9
    209    6     4.0574    23.1924    22.6590     14   0.00   0.00000   0.00000   0.00000  4.5  0.9
    210    6     5.4137    23.2568    27.0658     14   0.00   0.00000   0.00000   0.00000  4.5  0.9
    211    2     6.8059    42.5575    48.0403     15   0.70   0.00000   0.00000   0.00000  4.5  0.9
    212    3     8.3955    39.1901   -47.2227     15  -0.70   0.00000   0.00000   0.00000  5.2  1.2
    213    4     8.8504    35.6926   -48.6864     15   0.00  -0.21533   0.00727  -0.25406  4.6  1.2
    214    5    12.3007    34.4731    48.8303     15   0.00  -0.21269  -0.35712   0.02485  4.6  1.2
    215    6    15.4840    32.0285   -48.5115     15   0.00   0.00000   0.00000   0.00000  4.5  0.9
    216    6    15.0036    29.3715   -46.1706     15   0.00   0.00000   0.00000   0.00000  4.5  0.9
    217    6    13.3432    29.0422   -42.8477     15   0.00   0.00000   0.00000   0.00000  4.5  0.9
    218    6    11.1789    29.6935   -41.6860     15   0.00   0.00000   0.00000   0.00000  4.5  0.9
    219    6     9.1702    32.3665   -39.5222     15   0.00   0.00000   0.00000   0.00000  4.5  0.9
    220    5     6.8766    33.3323    49.0465     15   0.00  -0.35548  -0.07396  -0.20385  4.6  1.2
    221    6     4.0558    32.4410    46.3709     15   0.00   0.00000   0.00000   0.00000  4.5  0.9
    222    6     2.1453    34.7127    44.3027     15   0.00   0.00000   0.00000   0.00000  4.5  0.9
    223    6     4.0078    32.4136    40.5650     15   0.00   0.00000   0.00000   0.00000  4.5  0.9
    224    6     2.9176    29.6988    38.1598     15   0.00   0.00000   0.00000   0.00000  4.5  0.9
    225    6     0.4321    28.2426    36.3405     15   0.00   0.00000   0.00000   0.00000  4.5  0.9
    226    2    23.4616   -47.4298    15.8241     16   0.70   0.00000   0.00000   0.00000  4.5  0.9
    227    3    24.4851    48.8712    20.5084     16  -0.70   0.00000   0.00000   0.00000  5.2  1.2
    228    4    26.0122   -46.1471    19.7045     16   0.00  -0.18647   0.21485   0.17332  4.6  1.2
    229    5    26.9416   -44.3603    15.9849     16   0.00   0.21423   0.20764  -0.29048  4.6  1.2
    230    6    27.5023   -43.2625    12.9263     16   0.00   0.00000   0.00000   0.00000  4.5  0.9
    231    6    28.2889   -42.6062     9.3466     16   0.00   0.00000   0.00000   0.00000  4.5  0.9
    232    6    27.4560   -45.0632     7.2328     16   0.00   0.00000   0.00000   0.00000  4.5  0.9
    233    6    27.4336   -45.4691     3.3787     16   0.00   0.00000   0.00000   0.00000  4.5  0.9
    234    6    27.5142   -48.0998     2.0326     16   0.00   0.00000   0.00000   0.00000  4.5  0.9
    235    5    25.8713   -43.3835    22.4932     16   0.00  -0.18463  -0.36160   0.09246  4.6  1.2
    236    6    24.2457   -43.5952    25.8297     16   0.00   0.00000   0.00000   0.00000  4.5  0.9
    237    6    20.1639   -43.5158    25.3011     16   0.00   0.00000   0.00000   0.00000  4.5  0.9
    238    6    18.3444   -43.0033    22.2860     16   0.00   0.00000   0.00000   0.00000  4.5  0.9
    239    6    15.9590   -44.2615    19.9072     16   0.00   0.00000   0.00000   0.00000  4.5  0.9
    240    6    13.8915   -45.8887    20.4500     16   0.00   0.00000   0.00000   0.00000  4.5  0.9
    241    2     2.3535   -31.8353   -45.1590     17   0.70   0.00000   0.00000   0.00000  4.5  0.9
    242    3     5.4880   -27.5201   -43.3343     17  -0.70   0.00000   0.00000   0.00000  5.2  1.2
    243    4     3.7799   -24.6698   -43.4075     17   0.00   0.00162  -0.07459  -0.32466  4.6  1.2
    244    5     0.8765   -23.9543   -41.5102     17   0.00  -0.33214   0.18544  -0.16936  4.6  1.2
    245    6    -1.5351   -21.3785   -41.0198     17   0.00   0.00000   0.00000   0.00000  4.5  0.9
    246    6    -3.8980   -19.9999   -42.8728     17   0.00   0.00000   0.00000   0.00000  4.5  0.9
    247    6    -1.3778   -17.9824   -44.5943     17   0.00   0.00000   0.00000   0.00000  4.5  0.9
    248    6     1.9826   -17.2951   -46.7595     17   0.00   0.00000   0.00000   0.00000  4.5  0.9
    249    6     3.5358   -17.1261   -49.1902     17   0.00   0.00000   0.00000   0.00000  4.5  0.9
    250    5     3.4997   -21.5631   -45.1167     17   0.00  -0.33331   0.24947  -0.00767  4.6  1.2
    251    6     2.2781   -19.0167   -42.0809     17   0.00   0.00000   0.00000   0.00000  4.5  0.9
    252    6     2.3569   -19.6083   -39.4253     17   0.00   0.00000   0.00000   0.00000  4.5  0.9
    253    6     3.9767   -22.5383   -36.7494     17   0.00   0.00000   0.00000   0.00000  4.5  0.9
    254    6     4.9111   -26.1605   -35.2113     17   0.00   0.00000   0.00000   0.00000  4.5  0.9
    255    6     7.0375   -29.0446   -35.8480     17   0.00   0.00000   0.00000   0.00000  4.5  0.9
    256    2    12.6060   -48.1299   -17.5191     18   0.70   0.00000   0.00000   0.00000  4.5  0.9
    257    3    15.0355    48.4738   -13.1951     18  -0.70   0.00000   0.00000   0.00000  5.2  1.2
    258    4    14.3807   -46.1687   -12.5705     18   0.00   0.23289  -0.11301  -0.20967  4.6  1.2
    259    5    12.8223   -43.0707   -13.6654     18   0.00   0.14425   0.15368  -0.35911  4.6  1.2
    260    6    11.1701   -40.1692   -16.0088     18   0.00   0.00000   0.00000   0.00000  4.5  0.9
    261    6     8.4424   -39.3711   -16.7071     18   0.00   0.00000   0.00000   0.00000  4.5  0.9
    262    6     7.6897   -36.9210   -18.9333     18   0.00   0.00000   0.00000   0.00000  4.5  0.9
    263    6     5.8114   -37.4529   -22.1766     18   0.00   0.00000   0.00000   0.00000  4.5  0.9
    264    6     7.0642   -39.7353   -25.6292     18   0.00   0.00000   0.00000   0.00000  4.5  0.9
    265    5    16.4876   -46.3584    -9.4731     18   0.00   0.35194  -0.18526   0.12332  4.6  1.2
    266    6    16.7276   -47.7467    -6.5987     18   0.00   0.00000   0.00000   0.00000  4.5  0.9
    267    6    19.4951   -48.6789    -3.8501     18   0.00   0.00000   0.00000   0.00000  4.5  0.9
    268    6    22.4106    49.2360    -2.3279     18   0.00   0.00000   0.00000   0.00000  4.5  0.9
    269    6    26.3972    48.6115    -1.9743     18   0.00   0.00000   0.00000   0.00000  4.5  0.9
    270    6    29.1276    48.0808    -2.1248     18   0.00   0.00000   0.00000   0.00000  4.5  0.9
    271    2     5.1624   -44.9329   -29.2486     19   0.70   0.00000   0.00000   0.00000  4.5  0.9
    272    3     0.8067   -47.5533   -31.5356     19  -0.70   0.00000   0.00000   0.00000  5.2  1.2
    273    4     1.2557    48.2724   -33.6606     19   0.00   0.27291   0.08826  -0.16940  4.6  1.2
    274    5     3.9161    47.5233   -35.0633     19   0.00   0.14830   0.38599  -0.04903  4.6  1.2
    275    6     8.0559    48.8056   -36.3376     19   0.00   0.00000   0.00000   0.00000  4.5  0.9
    276    6     9.6698   -47.2331   -36.6370     19   0.00   0.00000   0.00000   0.00000  4.5  0.9
    277    6    12.3608   -47.2148   -37.9115     19   0.00   0.00000   0.00000   0.00000  4.5  0.9
    278    6    14.5696   -45.9255   -39.4628     19   0.00   0.00000   0.00000   0.00000  4.5  0.9
    279    6    17.5603   -47.5029   -41.5313     19   0.00   0.00000   0.00000   0.00000  4.5  0.9
    280    5    -2.0615    46.4174   -35.3929     19   0.00  -0.21658   0.13340  -0.32968  4.6  1.2
    281    6    -5.4731    46.9714   -35.6368     19   0.00   0.00000   0.00000   0.00000  4.5  0.9
    282    6    -7.7224    48.5488   -35.2557     19   0.00   0.00000   0.00000   0.00000  4.5  0.9
    283    6   -10.0757    47.8839   -37.1883     19   0.00   0.00000   0.00000   0.00000  4.5  0.9
    284    6   -12.4961    46.2416   -38.9152     19   0.00   0.00000   0.00000   0.00000  4.5  0.9
    285    6   -12.4144    44.5263   -41.9373     19   0.00   0.00000   0.00000   0.00000  4.5  0.9
    286    2    30.8814   -46.8629    10.8258     20   0.70   0.00000   0.00000   0.00000  4.5  0.9
    287    3    26.0170   -48.4588    11.3567     20  -0.70   0.00000   0.00000   0.00000  5.2  1.2
    288    4    24.7202    46.7824    13.3745     20   0.00  -0.17543   0.12829   0.25246  4.6  1.2
    289    5    25.1126    42.5802    13.2356     20   0.00   0.02226  -0.28834   0.29959  4.6  1.2
    290    6    24.8939    38.9803    15.1568     20   0.00   0.00000   0.00000   0.00000  4.5  0.9
    291    6    24.9406    36.1694    13.2453     20   0.00   0.00000   0.00000   0.00000  4.5  0.9
    292    6    26.4005    34.5325    10.7039     20   0.00   0.00000   0.00000   0.00000  4.5  0.9
    293    6    28.5887    34.7201     9.5750     20   0.00   0.00000   0.00000   0.00000  4.5  0.9
    294    6    30.1121    34.4821     6.5602     20   0.00   0.00000   0.00000   0.00000  4.5  0.9
    295    5    24.9181    45.6381    16.8433     20   0.00   0.03481  -0.37998   0.16670  4.6  1.2
    296    6    28.5953    44.0188    18.1333     20   0.00   0.00000   0.00000   0.00000  4.5  0.9