LAMMPS (25 Sep 2011)
units		real
atom_style	hybrid angle dipole sphere 
read_data 	data.512dope10890wat
  2 = max bonds/atom
  2 = max angles/atom
  orthogonal box = (-49.25 -49.25 -49.25) to (49.25 49.25 49.25)
  1 by 2 by 2 processor grid
  18570 atoms
  7168 bonds
  8192 angles
  3 = max # of 1-2 neighbors
  3 = max # of 1-3 neighbors
  6 = max # of 1-4 neighbors
  8 = max # of special neighbors
include 	forcefield.dope
pair_style dipole/sf 12
bond_style harmonic 
angle_style hybrid cosine/squared dipole

#    type  mass [grams/mol]
mass    1   40.000 # water
mass    2   42.000 # amine
mass    3   90.000 # phosphate
mass    4   62.000 # glycerol
mass    5   62.000 # ester
mass    6   42.000 # tail

# LJ coeffs: iType jType epsilon_ij [kcal/mol] sigma_ij [angstrom]
pair_coeff    1    1	  0.466  3.000 # water-water
pair_coeff    1    2	  0.671  3.750 # water-amine
pair_coeff    1    3	  1.054  4.100 # water-phosphate
pair_coeff    1    4	  0.574  3.800 # water-glycerol
pair_coeff    1    5	  0.765  3.800 # water-ester
pair_coeff    1    6	  0.447  3.750 # water-tail
pair_coeff    2    2	  0.837  4.500 # amine-amine
pair_coeff    2    3	  2.738  4.850 # amine-phosphate
pair_coeff    2    4	  1.341  4.550 # amine-glycerol
pair_coeff    2    5	  2.236  4.550 # amine-ester
pair_coeff    2    6	  0.837  4.500 # amine-tail
pair_coeff    3    3	  1.434  5.200 # phosphate-phosphate
pair_coeff    3    4	  1.171  4.900 # phosphate-glycerol
pair_coeff    3    5	  1.171  4.900 # phosphate-ester
pair_coeff    3    6	  1.095  4.850 # phosphate-tail
pair_coeff    4    4	  0.956  4.600 # glycerol-glycerol
pair_coeff    4    5	  0.956  4.600 # glycerol-ester
pair_coeff    4    6	  0.894  4.550 # glycerol-tail
pair_coeff    5    5	  0.956  4.600 # ester-ester 
pair_coeff    5    6	  0.894  4.550 # ester-tail
pair_coeff    6    6	  0.837  4.500 # tail-tail

# harmonic bond coeffs:  K [kcal/(mol*angstrom^2)] r0 [angstrom] 
bond_coeff    1   1.505  4.680 # choline--phosphate
bond_coeff    2   1.505  4.410 # phosphate--glycerol
bond_coeff    3   1.505  4.140 # glycerol--ester
bond_coeff    4   1.505  4.095 # ester--tail
bond_coeff    5   1.505  4.050 # tail--tail

# angle coeffs: K [kcal/mol] theta0 [degrees]
angle_coeff 1 cosine/squared 3.585 115.00 # choline-phosphate-glycerol
angle_coeff 2 cosine/squared 3.585 160.00 # phosphate-glycerol-ester
angle_coeff 3 cosine/squared 3.585 180.00 # gly-est-tail, tail-tail-tail (sat)
angle_coeff 4 cosine/squared 3.585 120.00 # tail-tail-tail (unsat)
# dipole angle coeffs:  K [kcal/mol] gamma0 [degrees] 
angle_coeff 5 dipole 1.195 0.000 # glyDipole-phosphate, estDipole-tail


special_bonds	lj/coul 0.0 1.0 1.0 
  3 = max # of 1-2 neighbors
  3 = max # of special neighbors
velocity	all create 0.0 87287 

neighbor	1 bin
neigh_modify	delay 0

group		lipids type 2 3 4 5 6
7680 atoms in group lipids
group		water type 1
10890 atoms in group water

fix		integrate all nve/sphere update dipole
fix 		tempLip lipids langevin 303.15 303.15 100.0 48279 omega yes
fix 		tempWat water langevin 303.15 303.15 100.0 48279 omega yes
fix             removeMomentum all momentum 1 linear 1 1 1

thermo_style	custom step etotal pe epair press temp
thermo		10
dump		trj all custom 100 dump.trj id type mol x y z mux muy muz
dump_modify	trj sort id

timestep	1
run		50
Memory usage per processor = 8.9043 Mbytes
Step TotEng PotEng E_pair Press Temp 
       0    -119299.3    -119299.3   -128097.54    -141.7712            0 
      10   -116479.64   -119765.07   -128552.21   -122.89088     59.35661 
      20   -114279.46   -120842.84   -129602.98   -281.24307    118.57815 
      30   -112768.57   -122050.07   -130775.23   -492.15104    167.68536 
      40   -111650.55   -123097.81   -131784.09   -661.72415     206.8133 
      50      -110971   -123854.68   -132497.22    -760.7069    232.76469 
Loop time of 2.50842 on 4 procs for 50 steps with 18570 atoms

Pair  time (%) = 2.23587 (89.1346)
Bond  time (%) = 0.0276021 (1.10038)
Neigh time (%) = 0 (0)
Comm  time (%) = 0.150549 (6.00176)
Outpt time (%) = 0.000355422 (0.0141692)
Other time (%) = 0.094043 (3.74909)

Nlocal:    4642.5 ave 4744 max 4587 min
Histogram: 2 0 0 0 1 0 0 0 0 1
Nghost:    8968 ave 9122 max 8835 min
Histogram: 2 0 0 0 0 0 0 1 0 1
Neighs:    417658 ave 435591 max 403047 min
Histogram: 1 0 0 1 1 0 0 0 0 1

Total # of neighbors = 1670632
Ave neighs/atom = 89.964
Ave special neighs/atom = 0.771998
Neighbor list builds = 0
Dangerous builds = 0

timestep	3
run		50
Memory usage per processor = 8.9043 Mbytes
Step TotEng PotEng E_pair Press Temp 
      50      -110971   -123854.68   -132497.22    -760.7069    232.76469 
      60   -110119.11   -124537.58   -133058.38   -682.86127    260.49321 
      70   -109001.86   -124063.75   -132512.45   -406.93593    272.11771 
      80   -107653.53    -123291.7   -131701.26   -136.60966    282.52905 
      90   -106696.18   -122433.58   -130840.93    87.600944    284.32185 
     100   -105855.33   -121766.83   -130195.06    258.04039    287.46721 
Loop time of 2.6605 on 4 procs for 50 steps with 18570 atoms

Pair  time (%) = 2.23404 (83.9707)
Bond  time (%) = 0.0269615 (1.0134)
Neigh time (%) = 0.0521775 (1.9612)
Comm  time (%) = 0.167655 (6.30165)
Outpt time (%) = 0.0844221 (3.17317)
Other time (%) = 0.095242 (3.57986)

Nlocal:    4642.5 ave 4736 max 4589 min
Histogram: 2 0 0 0 1 0 0 0 0 1
Nghost:    8982 ave 9139 max 8855 min
Histogram: 2 0 0 0 0 0 0 1 0 1
Neighs:    417711 ave 435469 max 403753 min
Histogram: 1 0 0 1 1 0 0 0 0 1

Total # of neighbors = 1670844
Ave neighs/atom = 89.9754
Ave special neighs/atom = 0.771998
Neighbor list builds = 2
Dangerous builds = 0

timestep	15
run		50
Memory usage per processor = 8.9043 Mbytes
Step TotEng PotEng E_pair Press Temp 
     100   -105855.33   -121766.83   -130195.06    258.04039    287.46721 
     110   -104630.21   -120825.35   -129341.36    415.38312    292.59158 
     120   -103633.94   -120185.55   -128821.57    517.06028    299.03173 
     130   -103141.65   -119886.24   -128541.11    587.55676    302.51838 
     140   -103147.58   -119792.64   -128454.49    568.94778    300.72025 
     150   -102934.51   -119646.03   -128286.23     576.4018    301.92086 
Loop time of 2.94625 on 4 procs for 50 steps with 18570 atoms

Pair  time (%) = 2.26246 (76.7914)
Bond  time (%) = 0.0266615 (0.904932)
Neigh time (%) = 0.37123 (12.6001)
Comm  time (%) = 0.187561 (6.36609)
Outpt time (%) = 0.000358939 (0.0121829)
Other time (%) = 0.0979717 (3.32531)

Nlocal:    4642.5 ave 4735 max 4568 min
Histogram: 1 1 0 0 0 0 1 0 0 1
Nghost:    8987.5 ave 9109 max 8863 min
Histogram: 2 0 0 0 0 0 0 0 0 2
Neighs:    417717 ave 436007 max 401599 min
Histogram: 1 0 0 1 1 0 0 0 0 1

Total # of neighbors = 1670869
Ave neighs/atom = 89.9768
Ave special neighs/atom = 0.771998
Neighbor list builds = 14
Dangerous builds = 0

fix		baro all press/berendsen aniso 1 1 1000 modulus 22222
run		50
Memory usage per processor = 8.9043 Mbytes
Step TotEng PotEng E_pair Press Temp 
     150   -102934.51   -119646.03   -128286.23     576.4018    301.92086 
     160   -103449.38   -120202.55   -128848.24    370.87743    302.67344 
     170   -102974.68   -119687.13   -128370.52    303.87862    301.93766 
     180   -102713.64   -119448.96   -128090.17    318.17631    302.35081 
     190   -102373.64   -119195.51   -127834.32    290.17155    303.91461 
     200   -102397.88   -119177.19   -127732.68    217.03095    303.14558 
Loop time of 3.04892 on 4 procs for 50 steps with 18570 atoms

Pair  time (%) = 2.26539 (74.3013)
Bond  time (%) = 0.0274022 (0.898751)
Neigh time (%) = 0.392021 (12.8577)
Comm  time (%) = 0.173632 (5.69488)
Outpt time (%) = 0.0855605 (2.80626)
Other time (%) = 0.104915 (3.44107)

Nlocal:    4642.5 ave 4708 max 4570 min
Histogram: 1 0 0 1 0 0 0 1 0 1
Nghost:    8946.75 ave 9075 max 8819 min
Histogram: 1 1 0 0 0 0 0 0 1 1
Neighs:    413741 ave 428830 max 397579 min
Histogram: 1 0 0 0 0 2 0 0 0 1

Total # of neighbors = 1654965
Ave neighs/atom = 89.1204
Ave special neighs/atom = 0.771998
Neighbor list builds = 15
Dangerous builds = 0
