LAMMPS 'data.' description - created with Brahms (www.personal.soton.ac.uk/orsi/brahms)

      864 atoms

        1 atom types

    -14.77858     14.77858      xlo xhi
    -14.77858     14.77858      ylo yhi
    -14.77858     14.77858      zlo zhi

Atoms

      1    1   -11.5864    -7.3424     0.4958      0   0.00   0.19124  -0.02559  -0.43827  3.0  2.8
      2    1     5.4573     8.0515    13.5852      0   0.00   0.18378  -0.35844   0.25895  3.0  2.8
      3    1   -13.1746   -13.0394    -9.4464      0   0.00   0.23813   0.37465   0.17955  3.0  2.8
      4    1    -4.1505    13.4305     1.4142      0   0.00   0.16567   0.11831  -0.43343  3.0  2.8
      5    1    13.5718   -10.4595     0.9182      0   0.00   0.03832   0.08069   0.47045  3.0  2.8
      6    1    -3.5887    -5.8482     2.0855      0   0.00  -0.15078   0.05696   0.45092  3.0  2.8
      7    1    11.6131     9.1060   -10.3990      0   0.00   0.36911   0.30389   0.02676  3.0  2.8
      8    1    -1.1825    12.4094     5.4714      0   0.00  -0.17863   0.44233  -0.04178  3.0  2.8
      9    1    10.3689    10.9916    -7.0468      0   0.00  -0.44021  -0.03359   0.18545  3.0  2.8
     10    1     3.8936     7.2155    -0.7196      0   0.00  -0.25704   0.22335  -0.33667  3.0  2.8
     11    1    -8.1718    13.0966     5.9443      0   0.00   0.28979   0.26216  -0.27677  3.0  2.8
     12    1    -6.6344     3.9434   -10.5393      0   0.00  -0.07210   0.47094  -0.04823  3.0  2.8
     13    1    -2.6215    13.8139     7.9899      0   0.00   0.06647   0.46591  -0.08839  3.0  2.8
     14    1    -9.1552   -13.0635    -0.2185      0   0.00   0.16361  -0.34303   0.29133  3.0  2.8
     15    1     2.0478    12.5187   -13.7019      0   0.00   0.32799   0.12932  -0.32404  3.0  2.8
     16    1    -8.8503     7.4878    -6.9352      0   0.00   0.38140   0.25962   0.12823  3.0  2.8
     17    1     7.6754   -10.7334   -13.0524      0   0.00   0.10726   0.44648  -0.13585  3.0  2.8
     18    1    -9.9206    -8.7244     8.3203      0   0.00   0.46655  -0.08302  -0.06890  3.0  2.8
     19    1    -3.5270     2.1063    12.9526      0   0.00   0.18290   0.15526   0.41443  3.0  2.8
     20    1     6.0122    -9.7683     8.0698      0   0.00  -0.44479  -0.09018   0.15276  3.0  2.8
     21    1    11.6038     6.0358     5.3671      0   0.00  -0.44586   0.01954  -0.17358  3.0  2.8
     22    1    13.1004   -10.3247    -2.1287      0   0.00   0.20769  -0.42680   0.06332  3.0  2.8
     23    1   -14.3341   -13.2109    -5.3787      0   0.00   0.05612  -0.24611  -0.40692  3.0  2.8
     24    1     0.5050     8.4337    -6.6208      0   0.00  -0.28408  -0.36113  -0.13486  3.0  2.8
     25    1   -11.0207    14.5048   -11.1382      0   0.00   0.36245   0.30979   0.04437  3.0  2.8
     26    1   -14.1554    13.4078     5.0299      0   0.00   0.42219  -0.18853  -0.12456  3.0  2.8
     27    1    -8.4085    10.2194     6.9894      0   0.00  -0.39837   0.26422   0.02823  3.0  2.8
     28    1    10.4980    12.0140   -13.3601      0   0.00  -0.01301  -0.47741  -0.03485  3.0  2.8
     29    1    -9.5034   -13.4725     7.3944      0   0.00  -0.31903  -0.29418   0.20245  3.0  2.8
     30    1    -8.1075   -10.6349    14.3607      0   0.00   0.28879   0.20029   0.32526  3.0  2.8
     31    1    12.6335    -1.3821   -13.1721      0   0.00   0.00990   0.25626   0.40440  3.0  2.8
     32    1    -8.0696    10.2658   -10.4457      0   0.00  -0.19583  -0.43031  -0.07611  3.0  2.8
     33    1    -1.2130     1.9481    -1.7979      0   0.00  -0.30302   0.36861  -0.04014  3.0  2.8
     34    1    -8.9527    -4.0120    -9.5410      0   0.00   0.30203   0.34354   0.14164  3.0  2.8
     35    1    -0.0322    12.5298    -9.8070      0   0.00   0.23450   0.32892   0.25715  3.0  2.8
     36    1    -9.2795    -4.0534   -12.3511      0   0.00  -0.27925  -0.36912   0.12278  3.0  2.8
     37    1     3.8950    -0.8103    -8.0354      0   0.00  -0.00694   0.07545   0.47283  3.0  2.8
     38    1    12.7440    -8.4357   -11.4500      0   0.00  -0.04933  -0.13980  -0.45534  3.0  2.8
     39    1    -1.4945    -8.3960    -8.3338      0   0.00  -0.13890  -0.43211   0.15262  3.0  2.8
     40    1    13.3892    -9.5504    12.6917      0   0.00  -0.45023   0.08712  -0.13788  3.0  2.8
     41    1    -7.9845     6.4656    -4.3765      0   0.00   0.37884  -0.16634  -0.24108  3.0  2.8
     42    1    12.7770    -4.5497     6.8048      0   0.00   0.11875  -0.46008  -0.05939  3.0  2.8
     43    1    10.3401    -2.7638    -4.8579      0   0.00  -0.39713  -0.01738  -0.26701  3.0  2.8
     44    1    -7.6257   -13.9236    -9.7609      0   0.00   0.21229  -0.41139  -0.12247  3.0  2.8
     45    1    -8.4748    -3.1293     4.2730      0   0.00  -0.46392  -0.10492   0.05550  3.0  2.8
     46    1     7.6281    14.1879     4.9977      0   0.00   0.41313  -0.10444   0.21847  3.0  2.8
     47    1   -11.8747    -7.5790    12.9713      0   0.00   0.28793  -0.27456   0.26649  3.0  2.8
     48    1     0.7416     0.1151    14.4752      0   0.00   0.45821   0.07201  -0.11900  3.0  2.8
     49    1     0.3484    -5.8861     6.8214      0   0.00   0.33390  -0.17721  -0.29396  3.0  2.8
     50    1    13.4996     0.0016   -10.6459      0   0.00  -0.05394   0.15901   0.44846  3.0  2.8
     51    1     4.5440     4.5247    -8.6552      0   0.00   0.17936   0.23886   0.37428  3.0  2.8
     52    1   -13.2683    -3.1873    -2.3597      0   0.00   0.19962  -0.11886   0.41873  3.0  2.8
     53    1     0.7310     1.9604   -12.7592      0   0.00   0.42513   0.09741  -0.19769  3.0  2.8
     54    1   -10.3350   -10.2769    12.1453      0   0.00   0.25802  -0.08228   0.39492  3.0  2.8
     55    1     7.7528   -12.8117   -10.5122      0   0.00   0.10271   0.32317   0.33811  3.0  2.8
     56    1   -13.4149    -6.0082   -10.1117      0   0.00  -0.10399  -0.43702  -0.16586  3.0  2.8
     57    1    -9.3224   -11.1755    -8.3595      0   0.00  -0.34519   0.20260  -0.26288  3.0  2.8
     58    1    12.5428   -12.8950    13.1825      0   0.00   0.42577   0.21172   0.05663  3.0  2.8
     59    1     0.0607    -3.0725     5.4446      0   0.00   0.17090  -0.44717  -0.01182  3.0  2.8
     60    1   -13.1015   -11.4100     3.1619      0   0.00   0.06833   0.40042  -0.25358  3.0  2.8
     61    1    -9.2082     8.6210     1.0372      0   0.00  -0.01110  -0.01750  -0.47841  3.0  2.8
     62    1    10.4295     1.1900   -11.9150      0   0.00  -0.37463   0.24124  -0.17539  3.0  2.8
     63    1    -5.1550    -1.3676    14.0637      0   0.00   0.20719   0.15552   0.40273  3.0  2.8
     64    1     6.9092    -6.7191    -8.7737      0   0.00   0.10835   0.41676   0.20946  3.0  2.8
     65    1    11.8238     5.5171    -4.5664      0   0.00  -0.11834  -0.30526  -0.34946  3.0  2.8
     66    1   -14.1112    -0.0092   -13.8372      0   0.00   0.36163   0.01426   0.31357  3.0  2.8
     67    1     2.8711     6.3155     2.4675      0   0.00  -0.35783  -0.11504  -0.29670  3.0  2.8
     68    1   -13.3667    -8.8064     2.2334      0   0.00   0.07387   0.46820  -0.06814  3.0  2.8
     69    1     7.9403   -13.1821     0.7615      0   0.00  -0.18893   0.40698   0.16727  3.0  2.8
     70    1    11.9380    -6.9753   -14.1381      0   0.00  -0.24601   0.25662  -0.32084  3.0  2.8
     71    1    13.6967    -8.7218     9.5176      0   0.00   0.27348   0.37560   0.11594  3.0  2.8
     72    1     4.9619   -11.9907    11.2296      0   0.00  -0.28148  -0.24549   0.29968  3.0  2.8
     73    1     4.7543     3.0226   -13.8827      0   0.00   0.05182  -0.36472  -0.30595  3.0  2.8
     74    1   -14.5084    10.8936    -6.2960      0   0.00   0.16212   0.04312   0.44851  3.0  2.8
     75    1     7.4928   -10.6860    12.7892      0   0.00  -0.15817  -0.44706  -0.06651  3.0  2.8
     76    1     5.1528   -13.4081    -7.0628      0   0.00   0.05453  -0.00027   0.47574  3.0  2.8
     77    1     4.0196   -10.6525     2.4386      0   0.00  -0.23707   0.09906  -0.40409  3.0  2.8
     78    1    -3.4729     5.1993     2.3038      0   0.00  -0.43572  -0.19520  -0.03671  3.0  2.8
     79    1     6.7579    11.5368    12.6983      0   0.00  -0.02550  -0.15316   0.45299  3.0  2.8
     80    1    -8.3157    -4.3995     9.0320      0   0.00   0.00870   0.25901  -0.40267  3.0  2.8
     81    1     6.7529     2.3842    -8.5817      0   0.00  -0.32243   0.11857  -0.33359  3.0  2.8
     82    1    -0.4880    -6.3139    12.6163      0   0.00   0.07715  -0.05531  -0.46936  3.0  2.8
     83    1     1.4646    -2.0777    -5.7348      0   0.00   0.00408   0.46420   0.11753  3.0  2.8
     84    1     1.8748    -8.1884    -9.0090      0   0.00  -0.45685  -0.14253  -0.01670  3.0  2.8
     85    1     1.6360     5.2332    -0.0028      0   0.00  -0.04453  -0.17336  -0.44415  3.0  2.8
     86    1     8.9112     6.1148     3.7286      0   0.00  -0.33514  -0.17623  -0.29313  3.0  2.8
     87    1     6.0527     0.1024     2.7505      0   0.00  -0.05934   0.45994   0.11932  3.0  2.8
     88    1    -4.2528   -12.1937   -14.4328      0   0.00  -0.17674   0.39986  -0.19540  3.0  2.8
     89    1    -6.3298     1.1489   -11.2983      0   0.00  -0.02449   0.45875   0.13512  3.0  2.8
     90    1   -14.7773    -4.4845    -5.9900      0   0.00  -0.32223   0.24753   0.25338  3.0  2.8
     91    1     1.0200    -2.9928   -12.0130      0   0.00   0.02539  -0.30031   0.37213  3.0  2.8
     92    1     3.7514    -2.9719   -10.2949      0   0.00  -0.10200  -0.09951   0.45717  3.0  2.8
     93    1     2.0213     4.8097   -11.2167      0   0.00  -0.20935  -0.40312   0.15156  3.0  2.8
     94    1     6.0442     9.9755    -2.5732      0   0.00   0.12916   0.45679   0.06299  3.0  2.8
     95    1   -11.7128   -12.9511    -6.9567      0   0.00   0.10689   0.43941   0.15747  3.0  2.8
     96    1    -4.2539    -3.1114     2.8620      0   0.00   0.31403   0.29649  -0.20685  3.0  2.8
     97    1    -2.1109    -0.7088    13.9718      0   0.00   0.43438   0.05397   0.19418  3.0  2.8
     98    1    10.4802     2.7074    -5.8170      0   0.00  -0.12389   0.12728  -0.44470  3.0  2.8
     99    1    10.6863     2.7112   -14.4689      0   0.00   0.35183  -0.28427  -0.15720  3.0  2.8
    100    1    -5.3095     8.1857    -3.3622      0   0.00   0.44979  -0.14791   0.07153  3.0  2.8
    101    1     4.7975     6.4712   -11.2325      0   0.00  -0.22550  -0.42124   0.03192  3.0  2.8
    102    1    -0.4389     7.9363    -0.3242      0   0.00   0.24287   0.19436   0.36407  3.0  2.8
    103    1     7.0765    -2.8055     7.4723      0   0.00  -0.06680   0.11558  -0.45988  3.0  2.8
    104    1    -7.7089     0.0250    -8.0261      0   0.00  -0.33681   0.34030   0.00812  3.0  2.8
    105    1     2.3742    -7.3123    -4.3524      0   0.00  -0.07395   0.10832  -0.46055  3.0  2.8
    106    1    -3.2075    -4.5844    -0.5365      0   0.00   0.38961   0.03553   0.27613  3.0  2.8
    107    1     9.4995    -1.6429   -12.5342      0   0.00   0.39910  -0.03890   0.26175  3.0  2.8
    108    1   -10.7090     6.6658     3.5795      0   0.00   0.36219  -0.12337  -0.28793  3.0  2.8
    109    1     2.5227    -5.7865   -11.2029      0   0.00  -0.03361  -0.41939   0.22867  3.0  2.8
    110    1    -3.0041     5.7477    12.5710      0   0.00   0.10244  -0.20176  -0.42203  3.0  2.8
    111    1     8.6240     5.4212     9.2427      0   0.00  -0.25506   0.33918  -0.22182  3.0  2.8
    112    1    -3.9681    13.9367    -3.7715      0   0.00  -0.43922  -0.12651  -0.14279  3.0  2.8
    113    1     2.4787   -13.0326   -11.3126      0   0.00   0.46505   0.09722   0.05987  3.0  2.8
    114    1     9.3206     9.3104    -1.0176      0   0.00   0.23720   0.36915   0.19176  3.0  2.8
    115    1    11.1455    -3.8646   -13.7107      0   0.00   0.36720   0.14579   0.27058  3.0  2.8
    116    1     1.1314     4.2191    -2.6541      0   0.00  -0.06188  -0.07328  -0.46916  3.0  2.8
    117    1     8.4372     9.7193    -8.1956      0   0.00  -0.11533  -0.12111  -0.44871  3.0  2.8
    118    1    -6.3154    12.5108    -9.0068      0   0.00  -0.11140  -0.39925  -0.23978  3.0  2.8
    119    1   -13.1047    -7.6017     8.0947      0   0.00   0.41652  -0.00738   0.23615  3.0  2.8
    120    1     0.9551    -0.0102    -3.2398      0   0.00   0.00162   0.26595  -0.39822  3.0  2.8
    121    1     4.0451     6.3809     6.7010      0   0.00   0.46488   0.10685  -0.04211  3.0  2.8
    122    1    -2.0086     8.6085   -11.6609      0   0.00   0.17226   0.43804   0.08808  3.0  2.8
    123    1    13.7312     9.4933    -8.4737      0   0.00   0.36710   0.24397   0.18713  3.0  2.8
    124    1    -2.9548    -7.9381    13.4920      0   0.00  -0.26395   0.11989  -0.38113  3.0  2.8
    125    1    -4.6783    -7.3838    -0.2992      0   0.00   0.20081   0.31720   0.29727  3.0  2.8
    126    1   -11.8202    11.6751   -11.8464      0   0.00   0.18173   0.39087   0.20857  3.0  2.8
    127    1     1.5055    -7.3176     0.5464      0   0.00   0.11329   0.38284  -0.26440  3.0  2.8
    128    1    -7.5328    -1.8169   -13.4580      0   0.00  -0.27620  -0.35712   0.15964  3.0  2.8
    129    1   -12.6404   -12.0685   -13.1679      0   0.00  -0.35488  -0.31454   0.06657  3.0  2.8
    130    1     2.5395   -13.5339    -8.2924      0   0.00   0.33611  -0.29815  -0.16565  3.0  2.8
    131    1     5.0613    -8.8365    -4.9945      0   0.00  -0.03951  -0.16864  -0.44644  3.0  2.8
    132    1   -12.8017     2.0055    10.5630      0   0.00   0.07484  -0.17647  -0.43882  3.0  2.8
    133    1   -12.8639    12.9850     0.9515      0   0.00   0.14060   0.42952   0.15827  3.0  2.8
    134    1     8.7342    -5.1634   -12.9601      0   0.00   0.25754   0.38821  -0.11078  3.0  2.8
    135    1    -6.1667     6.6621     1.0909      0   0.00  -0.34270  -0.29003  -0.16659  3.0  2.8
    136    1    -5.5046    12.6402     8.8629      0   0.00   0.24970  -0.17582   0.36884  3.0  2.8
    137    1    -7.1171     2.8483    -2.1233      0   0.00  -0.19677   0.43201  -0.06291  3.0  2.8
    138    1    10.0907     5.3127    -7.6701      0   0.00  -0.09594   0.42022  -0.20861  3.0  2.8
    139    1     1.9012   -11.1559    -6.7685      0   0.00  -0.18264  -0.27344  -0.34811  3.0  2.8
    140    1    -5.3081     8.5186   -12.4572      0   0.00  -0.08244  -0.45606  -0.12051  3.0  2.8
    141    1   -14.6321     2.7792    12.6382      0   0.00   0.43904  -0.01264  -0.19078  3.0  2.8
    142    1     1.8799     4.8611     8.6001      0   0.00   0.42444   0.17999  -0.12947  3.0  2.8
    143    1   -10.9764    -6.4329   -12.7161      0   0.00  -0.42987  -0.12039  -0.17327  3.0  2.8
    144    1     9.3813     7.0624   -10.1259      0   0.00   0.21592   0.41936  -0.08260  3.0  2.8
    145    1    14.0027    11.3111   -10.8183      0   0.00   0.18195   0.44138  -0.03724  3.0  2.8
    146    1     4.7513    -3.2988     0.1501      0   0.00  -0.34041  -0.17961   0.28490  3.0  2.8
    147    1    -2.4955    13.8437    -8.4997      0   0.00   0.07434   0.38143   0.27980  3.0  2.8
    148    1     1.9807    10.9363    -7.9098      0   0.00  -0.28972  -0.25288  -0.28535  3.0  2.8
    149    1   -11.0794    10.0564     9.1326      0   0.00   0.18235   0.42413  -0.12717  3.0  2.8
    150    1     0.0929   -12.9506    -4.6846      0   0.00  -0.21392  -0.10176   0.41616  3.0  2.8
    151    1    -5.7495     4.4931    -4.7838      0   0.00   0.46791  -0.09638   0.03277  3.0  2.8
    152    1   -12.7096    -3.6363    -8.6355      0   0.00   0.25085  -0.38157  -0.14416  3.0  2.8
    153    1     9.4406   -13.2042   -12.9841      0   0.00  -0.13150   0.24778   0.38810  3.0  2.8
    154    1    -8.0539    -8.6282    11.9612      0   0.00  -0.30475   0.32139  -0.18204  3.0  2.8
    155    1    -6.3716    -1.6542   -10.1168      0   0.00  -0.18430   0.43512   0.07752  3.0  2.8
    156    1     9.3849    -4.8337    -9.8915      0   0.00   0.38160  -0.28111   0.06831  3.0  2.8
    157    1     9.2782    -0.2665    13.8975      0   0.00  -0.36870  -0.23933   0.18997  3.0  2.8
    158    1    12.3625    -4.1043     2.4549      0   0.00   0.29530  -0.24193  -0.28909  3.0  2.8
    159    1    11.3506     0.3003    -4.1460      0   0.00  -0.33875   0.11077  -0.31982  3.0  2.8
    160    1     6.5411    -8.0751    11.7739      0   0.00   0.19205  -0.15965   0.40858  3.0  2.8
    161    1   -11.4125     8.1582   -12.6313      0   0.00  -0.15382   0.15399   0.42654  3.0  2.8
    162    1     0.3139     7.6761    -9.4598      0   0.00  -0.39183  -0.26080  -0.08807  3.0  2.8
    163    1     7.7342    13.9385    -7.8655      0   0.00  -0.18853  -0.03111   0.43908  3.0  2.8
    164    1     9.5336    -5.3489     7.4334      0   0.00   0.21233   0.04238  -0.42711  3.0  2.8
    165    1    -0.5996   -14.1481   -11.1645      0   0.00   0.27930   0.38896   0.00329  3.0  2.8
    166    1    12.8457     9.9657    14.6761      0   0.00  -0.38819  -0.24468  -0.13691  3.0  2.8
    167    1    -6.7300    -1.4683    -2.0109      0   0.00  -0.37623  -0.15480   0.25257  3.0  2.8
    168    1    -2.3172     7.3250    -7.8654      0   0.00  -0.07113  -0.25161   0.40118  3.0  2.8
    169    1    -5.6447   -10.5791    10.2367      0   0.00  -0.39669  -0.12462  -0.23753  3.0  2.8
    170    1    13.4818     5.7422    12.1036      0   0.00   0.40808  -0.12297  -0.21830  3.0  2.8
    171    1    -4.1717     2.2283    -5.1175      0   0.00  -0.11211  -0.46124  -0.06319  3.0  2.8
    172    1    -7.5736     8.7507     3.4537      0   0.00  -0.37752   0.01267  -0.29433  3.0  2.8
    173    1    -7.8586     4.6236    -7.2394      0   0.00   0.34751   0.32050  -0.07630  3.0  2.8
    174    1    -6.7905     6.6591    -9.4637      0   0.00   0.44481   0.17228  -0.04205  3.0  2.8
    175    1     0.1880    -8.5579    14.3691      0   0.00  -0.05097   0.44029   0.18126  3.0  2.8
    176    1    -0.2380     8.9046    11.4397      0   0.00  -0.03701   0.42252  -0.22229  3.0  2.8
    177    1   -10.6250    13.5362   -13.8202      0   0.00   0.13336   0.43026  -0.16247  3.0  2.8
    178    1     2.1072   -10.9111    11.9552      0   0.00   0.05195  -0.02329   0.47546  3.0  2.8
    179    1    -9.9940     6.2331    -9.4326      0   0.00   0.06137   0.45833   0.12439  3.0  2.8
    180    1    -3.5202   -12.2757     1.7663      0   0.00  -0.03426   0.35573  -0.31873  3.0  2.8
    181    1    -1.0075    11.4622    -7.1360      0   0.00  -0.43212  -0.05055   0.20006  3.0  2.8
    182    1     1.5973    11.2546    11.3361      0   0.00   0.38711   0.23471   0.15609  3.0  2.8
    183    1    -0.0046    -6.2543   -13.5572      0   0.00  -0.14996  -0.03023   0.45377  3.0  2.8
    184    1    14.7123    -9.6911    -5.3127      0   0.00  -0.13568   0.25961   0.37881  3.0  2.8
    185    1     2.7556    -1.3722     4.0437      0   0.00  -0.18742  -0.05368   0.43738  3.0  2.8
    186    1     3.6372    -1.9258    10.0356      0   0.00  -0.28002  -0.27529  -0.27407  3.0  2.8
    187    1     3.1391     8.7225    -2.7674      0   0.00   0.09373   0.40323  -0.24068  3.0  2.8
    188    1    -1.7198   -11.0908    -3.3751      0   0.00  -0.25533   0.18974   0.35793  3.0  2.8
    189    1   -12.2137    -0.3528     4.6885      0   0.00  -0.29645   0.28704   0.24297  3.0  2.8
    190    1    12.3055    -5.8162     9.6681      0   0.00  -0.13456   0.26832   0.37310  3.0  2.8
    191    1    -2.4012     0.4221   -10.9211      0   0.00  -0.04035  -0.04495  -0.47504  3.0  2.8
    192    1    -7.9701     1.6718     9.0127      0   0.00   0.15995   0.05815   0.44760  3.0  2.8
    193    1    -0.8979    -0.8708    -8.2753      0   0.00   0.08783   0.14328  -0.44840  3.0  2.8
    194    1   -14.4165    -0.9916    -8.3254      0   0.00   0.37748  -0.29454  -0.00796  3.0  2.8
    195    1     5.0291    -3.6276    12.6418      0   0.00   0.42388  -0.11251  -0.19227  3.0  2.8
    196    1     1.7305    -2.3828     7.8262      0   0.00  -0.35197  -0.28943  -0.14715  3.0  2.8
    197    1    -4.1299     8.6423     2.0576      0   0.00  -0.27760  -0.36054   0.14918  3.0  2.8
    198    1   -10.6610     0.8118     8.1195      0   0.00   0.43828   0.10100   0.16436  3.0  2.8
    199    1     5.9423    -5.9685    14.7735      0   0.00  -0.06126   0.47049  -0.06476  3.0  2.8
    200    1   -11.7559    10.5299   -14.7181      0   0.00   0.05613  -0.02382   0.47496  3.0  2.8
    201    1    -6.4858    -8.3182   -14.0200      0   0.00   0.44568   0.16795   0.04969  3.0  2.8
    202    1    -6.3170    -1.8477     1.1060      0   0.00   0.12360   0.42962  -0.17162  3.0  2.8
    203    1    -5.8906     7.0985    -6.4509      0   0.00   0.39610   0.26687  -0.03456  3.0  2.8
    204    1    11.7619    -4.6848    -0.7546      0   0.00   0.20307   0.10082  -0.42179  3.0  2.8
    205    1    13.6272    -1.7904    -4.9217      0   0.00  -0.12797   0.45738   0.06109  3.0  2.8
    206    1     5.9259    -7.1177   -11.1813      0   0.00  -0.05235  -0.10560   0.46413  3.0  2.8
    207    1    14.7275    -9.8212   -13.5385      0   0.00  -0.21884  -0.31770  -0.28369  3.0  2.8
    208    1     9.1130    10.3509    -4.4490      0   0.00  -0.20740   0.23744   0.36043  3.0  2.8
    209    1    -4.4512     6.0836   -13.7857      0   0.00   0.26904  -0.36158  -0.16182  3.0  2.8
    210    1    13.3545    -9.9494     4.0773      0   0.00   0.00385   0.23813   0.41544  3.0  2.8
    211    1    10.3885    -6.2236    -5.9067      0   0.00  -0.02735  -0.27493  -0.39112  3.0  2.8
    212    1    -9.8993     4.2617    -3.1666      0   0.00  -0.15776   0.35503  -0.27996  3.0  2.8
    213    1    13.0475   -13.0752    -7.3011      0   0.00   0.14082  -0.15806  -0.42953  3.0  2.8
    214    1    -6.2713     6.1137    12.6316      0   0.00  -0.33944  -0.33221   0.06107  3.0  2.8
    215    1    14.4408    14.4610     8.2398      0   0.00   0.47718  -0.03745   0.01435  3.0  2.8
    216    1     3.7258    11.6909    -0.3475      0   0.00   0.42822   0.12451   0.17444  3.0  2.8
    217    1   -13.5825    -2.1129   -11.3273      0   0.00   0.28206   0.06469   0.38153  3.0  2.8
    218    1     8.1698    -8.0915     4.1761      0   0.00  -0.01886  -0.10215   0.46746  3.0  2.8
    219    1   -11.0325    11.0915    -5.2442      0   0.00  -0.11740  -0.32650   0.33003  3.0  2.8
    220    1   -10.7971    -5.1091    -2.2991      0   0.00  -0.07612  -0.44399  -0.16244  3.0  2.8
    221    1    10.4073    11.7000     3.6433      0   0.00   0.28651  -0.24235   0.29747  3.0  2.8
    222    1     3.3239     8.2722     9.0037      0   0.00   0.26132   0.03075   0.40009  3.0  2.8
    223    1     2.2064    10.3010   -10.9640      0   0.00  -0.37748   0.14796  -0.25479  3.0  2.8
    224    1   -10.0145    14.0062    -5.4777      0   0.00  -0.32738   0.10556   0.33315  3.0  2.8
    225    1     3.0984     2.3602     0.0516      0   0.00  -0.07759  -0.47065   0.04213  3.0  2.8
    226    1   -12.9530     1.9575    -8.4993      0   0.00   0.17292  -0.29216   0.33771  3.0  2.8
    227    1    -4.5172    -6.9805   -12.2774      0   0.00   0.09469   0.44657   0.14463  3.0  2.8
    228    1     9.2384     4.3298   -10.7909      0   0.00  -0.01833   0.44504   0.17581  3.0  2.8
    229    1    13.5637     9.0793    -0.0767      0   0.00  -0.18111  -0.01299   0.44310  3.0  2.8
    230    1     7.0517    -3.3455    -9.8609      0   0.00  -0.02219  -0.46971  -0.09046  3.0  2.8
    231    1     7.0273     1.9775    13.5369      0   0.00   0.18475   0.14653  -0.41678  3.0  2.8
    232    1   -10.5443     3.4748    -7.3309      0   0.00   0.42434   0.22089   0.02122  3.0  2.8
    233    1    14.4263     8.3477   -11.8200      0   0.00   0.02740   0.44229   0.18148  3.0  2.8
    234    1     4.6503     4.4954     1.1828      0   0.00  -0.32647  -0.28551  -0.20300  3.0  2.8
    235    1     2.1930     3.5554    -6.0114      0   0.00   0.30896   0.34300  -0.12729  3.0  2.8
    236    1    -1.8358     0.4615    -5.5520      0   0.00  -0.12838  -0.46071   0.02400  3.0  2.8
    237    1     5.3715    -3.5355   -12.6884      0   0.00  -0.20706  -0.22967   0.36563  3.0  2.8
    238    1    12.9266     2.8090    -9.3955      0   0.00  -0.32849   0.29561   0.18444  3.0  2.8
    239    1    13.6157     4.1521    14.7580      0   0.00   0.10411  -0.44044  -0.15646  3.0  2.8
    240    1   -11.4671     1.6747    -1.7502      0   0.00  -0.00584   0.07414  -0.47305  3.0  2.8
    241    1     6.6862     6.5437    -0.0239      0   0.00  -0.42534  -0.20565  -0.07810  3.0  2.8
    242    1     6.2009   -14.4831    -1.5441      0   0.00  -0.06714   0.13850   0.45345  3.0  2.8
    243    1    -0.4004    11.9622    14.1725      0   0.00  -0.36036   0.20607  -0.23871  3.0  2.8
    244    1   -14.3441    -7.1204    11.0408      0   0.00   0.24262   0.14311   0.38725  3.0  2.8
    245    1    -8.6477    -3.6989    -1.0515      0   0.00  -0.18189  -0.42087  -0.13818  3.0  2.8
    246    1    -8.2181     7.6767    -1.6276      0   0.00  -0.15775  -0.21899  -0.39556  3.0  2.8
    247    1   -12.8023    -3.6634   -13.7587      0   0.00  -0.39772   0.23938  -0.11758  3.0  2.8
    248    1     3.9303    -7.4730   -13.2857      0   0.00   0.44547   0.02506  -0.17388  3.0  2.8
    249    1    -6.3457   -10.6406    -9.3843      0   0.00   0.15731  -0.19871   0.40629  3.0  2.8
    250    1    14.0701     5.8444    -2.9471      0   0.00  -0.10266  -0.42574  -0.19369  3.0  2.8
    251    1   -11.0484   -10.6290   -10.5802      0   0.00  -0.38352   0.26937  -0.09830  3.0  2.8
    252    1    -8.3837    10.7764    -2.7544      0   0.00  -0.27136  -0.37803  -0.11300  3.0  2.8
    253    1     2.9882    -3.0804    14.5885      0   0.00   0.24609  -0.13295  -0.38868  3.0  2.8
    254    1    -9.3096    -1.3919   -10.8076      0   0.00  -0.14193   0.13233  -0.43778  3.0  2.8
    255    1    -8.5500    10.8507   -13.4929      0   0.00   0.09335  -0.29012  -0.36935  3.0  2.8
    256    1   -12.6325   -10.6354    -3.0459      0   0.00   0.21860  -0.20795  -0.37186  3.0  2.8
    257    1    -6.0080    12.2980    -1.3874      0   0.00  -0.14854  -0.41906  -0.17785  3.0  2.8
    258    1     3.2356     7.9881    -8.6388      0   0.00  -0.06293  -0.10140  -0.46375  3.0  2.8
    259    1     9.8189    -7.1379    13.1925      0   0.00  -0.10819  -0.19342  -0.42449  3.0  2.8
    260    1    14.3071   -13.1280    -2.3812      0   0.00   0.15597  -0.17414  -0.41792  3.0  2.8
    261    1    10.3081    13.1973     6.7546      0   0.00   0.47013   0.05541   0.07221  3.0  2.8
    262    1   -10.2531     8.8765    -3.6109      0   0.00  -0.29517  -0.37460   0.04303  3.0  2.8
    263    1    -0.7375     6.0993   -13.4016      0   0.00   0.12718   0.44079  -0.13724  3.0  2.8
    264    1   -13.0992     7.5785     6.4880      0   0.00  -0.21917  -0.40411   0.13404  3.0  2.8
    265    1    -8.7666     5.3730     0.7176      0   0.00  -0.45003  -0.15711  -0.04580  3.0  2.8
    266    1    -9.8298    13.9405    12.9414      0   0.00   0.11847  -0.09968  -0.45314  3.0  2.8
    267    1    -9.4948    12.4485     9.2466      0   0.00  -0.01313   0.47324   0.07196  3.0  2.8
    268    1     3.0786   -10.7553    -0.8877      0   0.00  -0.22663  -0.07846  -0.41447  3.0  2.8
    269    1     9.5755    -6.1658    -2.9525      0   0.00   0.44983  -0.10539  -0.12589  3.0  2.8
    270    1    -0.7306    -5.0133    -8.1895      0   0.00  -0.28887  -0.37662  -0.06339  3.0  2.8
    271    1     1.1642    -9.2244   -12.4592      0   0.00   0.31440  -0.07847  -0.35257  3.0  2.8
    272    1   -13.9806    -6.7181   -13.4797      0   0.00  -0.36243  -0.07878  -0.30290  3.0  2.8
    273    1     0.8006     0.6429    -0.4910      0   0.00  -0.18234  -0.11046  -0.42879  3.0  2.8
    274    1     4.2162    12.6455    -6.7852      0   0.00  -0.42723  -0.11776  -0.18143  3.0  2.8
    275    1    14.0939    -5.5045    13.7625      0   0.00   0.32907   0.23524  -0.25628  3.0  2.8
    276    1    -0.3832    10.9101   -12.7067      0   0.00  -0.12411   0.36215  -0.28766  3.0  2.8
    277    1     4.8112     9.6894    11.2562      0   0.00  -0.05338   0.25349   0.40274  3.0  2.8
    278    1     1.6253     9.1928     1.7400      0   0.00  -0.44783   0.13231   0.10606  3.0  2.8
    279    1     9.6173    -5.7037     0.7210      0   0.00   0.46652  -0.09292  -0.05508  3.0  2.8
    280    1    -0.0890     5.7399    -6.0945      0   0.00  -0.10515  -0.42717   0.18914  3.0  2.8
    281    1     5.3431     0.2691   -14.6676      0   0.00   0.06575  -0.09897  -0.46388  3.0  2.8
    282    1     5.6523    -2.8690     4.0202      0   0.00  -0.05310   0.46614  -0.09592  3.0  2.8
    283    1   -13.4380    -9.0227   -11.0585      0   0.00  -0.37158  -0.25897  -0.15545  3.0  2.8
    284    1    -4.6142    -5.7624    -5.9113      0   0.00   0.35397   0.11944   0.29957  3.0  2.8
    285    1    10.1108   -13.3216    11.5496      0   0.00   0.44306   0.14584   0.10834  3.0  2.8
    286    1    -5.1213    12.3378    13.0175      0   0.00  -0.21024   0.24314   0.35495  3.0  2.8
    287    1    -5.0471    -8.5296    -7.8699      0   0.00   0.16914  -0.44079   0.08000  3.0  2.8
    288    1   -13.1986    13.3449    -5.3028      0   0.00   0.27949  -0.18081   0.34423  3.0  2.8
    289    1    -1.2397    -6.5382   -10.9872      0   0.00  -0.32940  -0.13744   0.31924  3.0  2.8
    290    1     9.1406    10.4597     6.9956      0   0.00  -0.16936   0.39293  -0.21501  3.0  2.8
    291    1    -2.2911    -8.4294     8.1164      0   0.00  -0.04956  -0.42643   0.21216  3.0  2.8
    292    1     7.5505    13.4017   -14.1968      0   0.00   0.40900   0.06668   0.23996  3.0  2.8
    293    1     4.4269    -7.9693     0.5106      0   0.00  -0.05535  -0.13600  -0.45579  3.0  2.8
    294    1    -1.7740    -8.6777     2.4073      0   0.00  -0.04014  -0.22758   0.41941  3.0  2.8
    295    1    -8.0982    -4.9040    -3.9226      0   0.00   0.00461  -0.39754   0.26692  3.0  2.8
    296    1     8.9937    13.3661     1.7066      0   0.00   0.20800   0.10109   0.41931  3.0  2.8
    297    1     3.7538    -5.1359    -7.9370      0   0.00   0.02128  -0.24760   0.40933  3.0  2.8