ITEM: TIMESTEP
0
ITEM: NUMBER OF ATOMS
864
ITEM: BOX BOUNDS pp pp pp
-14.802 14.802
-14.802 14.802
-14.802 14.802
ITEM: ATOMS id type x y z mux muy muz 
1 1 -14.802 -14.802 -14.802 0.369465 0.0708121 0.296517 
2 1 -12.335 -12.335 -14.802 -0.119926 -0.0976742 -0.453342 
3 1 -12.335 -14.802 -12.335 -0.120032 0.0318772 -0.46262 
4 1 -14.802 -12.335 -12.335 0.317997 -0.180693 -0.309303 
5 1 -9.868 -14.802 -14.802 0.133424 -0.0408776 -0.458223 
6 1 -7.401 -12.335 -14.802 -0.241918 0.151557 0.384639 
7 1 -7.401 -14.802 -12.335 -0.313658 -0.172424 -0.318323 
8 1 -9.868 -12.335 -12.335 -0.313123 -0.342144 0.119718 
9 1 -4.934 -14.802 -14.802 0.266412 -0.240122 -0.317501 
10 1 -2.467 -12.335 -14.802 0.378069 -0.205707 0.210212 
11 1 -2.467 -14.802 -12.335 0.150626 -0.418072 0.178798 
12 1 -4.934 -12.335 -12.335 0.0521369 -0.464052 -0.10667 
13 1 0 -14.802 -14.802 -0.234657 0.413824 0.0559157 
14 1 2.467 -12.335 -14.802 -0.0360467 0.333922 0.341522 
15 1 2.467 -14.802 -12.335 0.467499 0.0932419 0.0468122 
16 1 0 -12.335 -12.335 0.222978 -0.306224 -0.293169 
17 1 4.934 -14.802 -14.802 0.341851 0.332286 0.0465242 
18 1 7.401 -12.335 -14.802 -0.148174 -0.213761 -0.402233 
19 1 7.401 -14.802 -12.335 0.401969 0.255381 -0.0514036 
20 1 4.934 -12.335 -12.335 0.0675354 -0.165523 0.444389 
21 1 9.868 -14.802 -14.802 0.129048 0.251129 -0.386939 
22 1 12.335 -12.335 -14.802 -0.0259597 -0.0764875 -0.472141 
23 1 12.335 -14.802 -12.335 -0.128146 -0.439338 0.141426 
24 1 9.868 -12.335 -12.335 -0.380651 0.261868 0.126376 
25 1 -14.802 -9.868 -14.802 0.322041 -0.191621 0.298349 
26 1 -12.335 -7.401 -14.802 -0.344165 -0.278552 0.182757 
27 1 -12.335 -9.868 -12.335 -0.307675 -0.294392 0.219342 
28 1 -14.802 -7.401 -12.335 -0.363891 -0.280342 0.135766 
29 1 -9.868 -9.868 -14.802 0.301479 0.184873 -0.323069 
30 1 -7.401 -7.401 -14.802 0.334719 0.307774 -0.150596 
31 1 -7.401 -9.868 -12.335 0.441416 0.00205277 0.18598 
32 1 -9.868 -7.401 -12.335 0.0653139 -0.299388 -0.36816 
33 1 -4.934 -9.868 -14.802 0.314036 -0.00584257 0.361647 
34 1 -2.467 -7.401 -14.802 0.328672 -0.346163 0.0398343 
35 1 -2.467 -9.868 -12.335 0.0711979 0.422926 -0.213321 
36 1 -4.934 -7.401 -12.335 -0.294118 0.349085 0.145173 
37 1 0 -9.868 -14.802 -0.273289 0.229905 0.319215 
38 1 2.467 -7.401 -14.802 -0.272302 -0.385762 0.0805008 
39 1 2.467 -9.868 -12.335 -0.192607 0.0501231 0.435696 
40 1 0 -7.401 -12.335 -0.195806 0.29694 -0.320823 
41 1 4.934 -9.868 -14.802 0.389142 0.121808 -0.251341 
42 1 7.401 -7.401 -14.802 0.190288 0.138845 -0.417078 
43 1 7.401 -9.868 -12.335 0.30492 0.246232 -0.275381 
44 1 4.934 -7.401 -12.335 0.0616177 -0.253957 0.401435 
45 1 9.868 -9.868 -14.802 0.305444 -0.31416 0.193516 
46 1 12.335 -7.401 -14.802 0.0699497 -0.316476 -0.352691 
47 1 12.335 -9.868 -12.335 0.265429 0.381464 -0.116076 
48 1 9.868 -7.401 -12.335 0.418587 0.101981 -0.209347 
49 1 -14.802 -4.934 -14.802 -0.230973 0.0457169 0.417136 
50 1 -12.335 -2.467 -14.802 0.42112 0.22025 -0.0599049 
51 1 -12.335 -4.934 -12.335 0.0600499 -0.419562 0.223166 
52 1 -14.802 -2.467 -12.335 0.131681 0.415626 0.198383 
53 1 -9.868 -4.934 -14.802 0.258988 -0.28137 -0.288439 
54 1 -7.401 -2.467 -14.802 0.198474 0.341496 -0.270979 
55 1 -7.401 -4.934 -12.335 -0.308666 -0.117124 0.347057 
56 1 -9.868 -2.467 -12.335 0.3101 0.36451 -0.0202887 
57 1 -4.934 -4.934 -14.802 -0.157657 0.00324535 -0.452299 
58 1 -2.467 -2.467 -14.802 0.107102 0.297541 -0.359777 
59 1 -2.467 -4.934 -12.335 0.242091 0.132619 -0.391466 
60 1 -4.934 -2.467 -12.335 0.360187 -0.110872 0.295658 
61 1 0 -4.934 -14.802 -0.155164 -0.317126 0.323723 
62 1 2.467 -2.467 -14.802 -0.144756 0.434188 0.141306 
63 1 2.467 -4.934 -12.335 -0.237407 -0.357092 0.213458 
64 1 0 -2.467 -12.335 -0.203499 -0.213931 -0.377177 
65 1 4.934 -4.934 -14.802 0.349316 -0.116303 -0.30642 
66 1 7.401 -2.467 -14.802 -0.29753 0.173896 -0.332682 
67 1 7.401 -4.934 -12.335 0.19998 -0.323829 -0.290832 
68 1 4.934 -2.467 -12.335 0.311114 0.350924 0.0974752 
69 1 9.868 -4.934 -14.802 0.124333 -0.301591 -0.35075 
70 1 12.335 -2.467 -14.802 0.258271 0.390218 -0.10231 
71 1 12.335 -4.934 -12.335 -0.369726 -0.253866 -0.168213 
72 1 9.868 -2.467 -12.335 -0.46139 0.0758871 0.103929 
73 1 -14.802 -14.802 -9.868 -0.30961 -0.365475 -0.00326475 
74 1 -12.335 -12.335 -9.868 -0.198525 0.280726 -0.333499 
75 1 -12.335 -14.802 -7.401 -0.109869 -0.410481 0.221077 
76 1 -14.802 -12.335 -7.401 0.255752 0.154886 -0.374222 
77 1 -9.868 -14.802 -9.868 0.1822 -0.143699 0.419041 
78 1 -7.401 -12.335 -9.868 -0.323817 0.346924 -0.0650187 
79 1 -7.401 -14.802 -7.401 0.258812 -0.395154 0.0794385 
80 1 -9.868 -12.335 -7.401 -0.277293 -0.310796 0.236549 
81 1 -4.934 -14.802 -9.868 0.458115 0.139615 0.00888456 
82 1 -2.467 -12.335 -9.868 0.273912 -0.27481 -0.280878 
83 1 -2.467 -14.802 -7.401 -0.300899 0.00646097 -0.372638 
84 1 -4.934 -12.335 -7.401 -0.38555 0.0128206 0.283951 
85 1 0 -14.802 -9.868 0.00475352 0.118219 -0.464158 
86 1 2.467 -12.335 -9.868 0.258815 -0.202141 -0.348705 
87 1 2.467 -14.802 -7.401 -0.404193 0.120265 -0.227168 
88 1 0 -12.335 -7.401 0.325265 -0.0673995 0.34511 
89 1 4.934 -14.802 -9.868 0.359029 -0.0283487 -0.315809 
90 1 7.401 -12.335 -9.868 -0.247181 -0.304572 -0.274916 
91 1 7.401 -14.802 -7.401 -0.230408 0.402834 0.11865 
92 1 4.934 -12.335 -7.401 -0.252198 -0.0036727 0.407214 
93 1 9.868 -14.802 -9.868 0.0238561 -0.0257261 0.477713 
94 1 12.335 -12.335 -9.868 0.318929 -0.357263 0.00938011 
95 1 12.335 -14.802 -7.401 -0.316261 -0.20565 0.295174 
96 1 9.868 -12.335 -7.401 -0.348922 -0.308796 -0.111084 
97 1 -14.802 -9.868 -9.868 -0.323859 -0.149381 -0.319753 
98 1 -12.335 -7.401 -9.868 -0.181396 -0.290921 -0.334517 
99 1 -12.335 -9.868 -7.401 -0.335752 -0.136919 0.312994 
100 1 -14.802 -7.401 -7.401 0.415957 -0.077943 -0.224378 
101 1 -9.868 -9.868 -9.868 -0.323958 0.191017 -0.296656 
102 1 -7.401 -7.401 -9.868 -0.279636 0.364567 -0.135407 
103 1 -7.401 -9.868 -7.401 -0.101197 0.360241 -0.299042 
104 1 -9.868 -7.401 -7.401 -0.277275 -0.298629 -0.251754 
105 1 -4.934 -9.868 -9.868 0.228689 0.18791 0.376606 
106 1 -2.467 -7.401 -9.868 0.180857 0.238598 -0.373902 
107 1 -2.467 -9.868 -7.401 -0.176447 0.442505 0.0499687 
108 1 -4.934 -7.401 -7.401 0.376171 -0.190433 -0.227313 
109 1 0 -9.868 -9.868 -0.316722 0.358382 0.0262819 
110 1 2.467 -7.401 -9.868 -0.460158 -0.100348 0.0873281 
111 1 2.467 -9.868 -7.401 -0.0535081 -0.444083 -0.171372 
112 1 0 -7.401 -7.401 0.435489 -0.197534 0.0277631 
113 1 4.934 -9.868 -9.868 0.36958 0.204337 -0.226049 
114 1 7.401 -7.401 -9.868 0.171414 0.323329 0.309057 
115 1 7.401 -9.868 -7.401 0.248607 -0.317342 -0.258708 
116 1 4.934 -7.401 -7.401 0.338014 -0.339392 -0.000132159 
117 1 9.868 -9.868 -9.868 -0.0353154 0.205524 0.431224 
118 1 12.335 -7.401 -9.868 -0.290087 0.0564393 -0.376968 
119 1 12.335 -9.868 -7.401 0.419093 0.225695 0.0535124 
120 1 9.868 -7.401 -7.401 0.277978 0.384617 0.06511 
121 1 -14.802 -4.934 -9.868 0.0584321 -0.26421 0.395246 
122 1 -12.335 -2.467 -9.868 0.244143 -0.370189 -0.181094 
123 1 -12.335 -4.934 -7.401 0.362848 -0.308652 -0.0501623 
124 1 -14.802 -2.467 -7.401 -0.194499 0.0283125 -0.436818 
125 1 -9.868 -4.934 -9.868 -0.454952 -0.0665751 -0.134267 
126 1 -7.401 -2.467 -9.868 0.32141 -0.317049 0.160052 
127 1 -7.401 -4.934 -7.401 -0.0068192 0.371639 -0.302124 
128 1 -9.868 -2.467 -7.401 0.421064 0.177233 -0.143995 
129 1 -4.934 -4.934 -9.868 0.289232 -0.00601895 0.381772 
130 1 -2.467 -2.467 -9.868 0.331696 -0.333033 0.0922364 
131 1 -2.467 -4.934 -7.401 0.064435 0.471461 -0.0548954 
132 1 -4.934 -2.467 -7.401 0.26981 0.214878 -0.332372 
133 1 0 -4.934 -9.868 0.311835 -0.270355 -0.243122 
134 1 2.467 -2.467 -9.868 -0.151459 0.201399 0.407357 
135 1 2.467 -4.934 -7.401 0.352511 -0.317562 0.0658156 
136 1 0 -2.467 -7.401 -0.07708 0.370875 0.293175 
137 1 4.934 -4.934 -9.868 0.160784 -0.215514 0.396413 
138 1 7.401 -2.467 -9.868 0.373898 0.157881 0.254391 
139 1 7.401 -4.934 -7.401 -0.112269 -0.271686 0.378184 
140 1 4.934 -2.467 -7.401 0.00989194 -0.473093 -0.0743411 
141 1 9.868 -4.934 -9.868 0.0779527 -0.361099 0.304913 
142 1 12.335 -2.467 -9.868 0.331092 0.277971 0.20628 
143 1 12.335 -4.934 -7.401 -0.355516 0.0206771 0.320346 
144 1 9.868 -2.467 -7.401 0.155575 0.437059 0.119235 
145 1 -14.802 -14.802 -4.934 -0.203474 -0.310435 -0.30277 
146 1 -12.335 -12.335 -4.934 -0.101279 0.407187 0.231047 
147 1 -12.335 -14.802 -2.467 0.418193 0.216316 0.0881105 
148 1 -14.802 -12.335 -2.467 -0.311435 0.174576 0.319331 
149 1 -9.868 -14.802 -4.934 0.276116 -0.116298 0.373732 
150 1 -7.401 -12.335 -4.934 0.289519 0.264276 0.275278 
151 1 -7.401 -14.802 -2.467 0.035263 -0.372449 -0.299131 
152 1 -9.868 -12.335 -2.467 -0.371804 0.247298 0.173339 
153 1 -4.934 -14.802 -4.934 0.199354 0.140798 -0.412159 
154 1 -2.467 -12.335 -4.934 -0.36267 0.0945531 -0.29828 
155 1 -2.467 -14.802 -2.467 -0.00246668 0.426431 0.218155 
156 1 -4.934 -12.335 -2.467 0.181308 -0.28682 -0.338087 
157 1 0 -14.802 -4.934 0.139394 -0.292987 -0.352376 
158 1 2.467 -12.335 -4.934 0.312036 0.123652 0.341738 
159 1 2.467 -14.802 -2.467 -0.27559 -0.383279 0.0811691 
160 1 0 -12.335 -2.467 0.348384 0.289764 0.155262 
161 1 4.934 -14.802 -4.934 -0.23332 0.120439 0.400621 
162 1 7.401 -12.335 -4.934 0.466072 0.0914183 0.0621361 
163 1 7.401 -14.802 -2.467 0.0252437 -0.0951373 -0.468778 
164 1 4.934 -12.335 -2.467 -0.188045 -0.339072 0.281266 
165 1 9.868 -14.802 -4.934 -0.228383 -0.219638 0.359224 
166 1 12.335 -12.335 -4.934 0.460608 0.0487858 0.12207 
167 1 12.335 -14.802 -2.467 -0.412765 -0.242193 -0.0202162 
168 1 9.868 -12.335 -2.467 -0.219436 -0.0408174 -0.423819 
169 1 -14.802 -9.868 -4.934 -0.34562 0.329813 0.0347961 
170 1 -12.335 -7.401 -4.934 -0.139071 -0.32917 -0.318979 
171 1 -12.335 -9.868 -2.467 0.245552 0.293779 -0.287817 
172 1 -14.802 -7.401 -2.467 0.165699 -0.189755 0.407404 
173 1 -9.868 -9.868 -4.934 -0.0463785 -0.33445 0.339754 
174 1 -7.401 -7.401 -4.934 0.0537811 0.182478 0.439603 
175 1 -7.401 -9.868 -2.467 0.273212 -0.279774 -0.276628 
176 1 -9.868 -7.401 -2.467 0.404757 -0.24667 -0.0690425 
177 1 -4.934 -9.868 -4.934 -0.161983 -0.387559 0.230218 
178 1 -2.467 -7.401 -4.934 -0.283009 0.384858 0.0350864 
179 1 -2.467 -9.868 -2.467 0.228145 0.220196 0.359033 
180 1 -4.934 -7.401 -2.467 0.470002 -0.0915687 0.0124209 
181 1 0 -9.868 -4.934 -0.371645 0.162791 0.254598 
182 1 2.467 -7.401 -4.934 0.216858 -0.395856 -0.160348 
183 1 2.467 -9.868 -2.467 -0.341077 0.0474946 -0.332944 
184 1 0 -7.401 -2.467 0.277979 0.0938917 -0.37862 
185 1 4.934 -9.868 -4.934 -0.377127 -0.295266 0.00584031 
186 1 7.401 -7.401 -4.934 -0.0992405 -0.22275 0.41228 
187 1 7.401 -9.868 -2.467 0.210168 -0.429092 -0.0339222 
188 1 4.934 -7.401 -2.467 0.0162978 0.466786 0.106238 
189 1 9.868 -9.868 -4.934 0.1011 0.464377 0.0597784 
190 1 12.335 -7.401 -4.934 -0.306248 -0.0547298 -0.364222 
191 1 12.335 -9.868 -2.467 0.0651551 0.451066 0.147429 
192 1 9.868 -7.401 -2.467 0.183741 0.239795 -0.371724 
193 1 -14.802 -4.934 -4.934 0.0663137 0.315455 -0.354305 
194 1 -12.335 -2.467 -4.934 -0.37954 0.156102 0.247028 
195 1 -12.335 -4.934 -2.467 -0.259061 0.361694 0.177499 
196 1 -14.802 -2.467 -2.467 -0.248783 -0.271947 -0.305929 
197 1 -9.868 -4.934 -4.934 -0.339112 0.025111 0.337363 
198 1 -7.401 -2.467 -4.934 -0.253733 0.143873 -0.379949 
199 1 -7.401 -4.934 -2.467 -0.396304 -0.255977 -0.0828214 
200 1 -9.868 -2.467 -2.467 0.384971 0.273409 -0.0805313 
201 1 -4.934 -4.934 -4.934 -0.160654 0.244978 -0.378969 
202 1 -2.467 -2.467 -4.934 -0.117469 0.261696 0.383611 
203 1 -2.467 -4.934 -2.467 0.335935 0.316769 0.12746 
204 1 -4.934 -2.467 -2.467 -0.12636 -0.324526 0.328872 
205 1 0 -4.934 -4.934 0.134815 -0.287276 -0.358801 
206 1 2.467 -2.467 -4.934 -0.392495 -0.0474834 0.270433 
207 1 2.467 -4.934 -2.467 0.247207 -0.222739 -0.344554 
208 1 0 -2.467 -2.467 -0.245256 0.127299 0.391261 
209 1 4.934 -4.934 -4.934 0.158621 -0.281943 -0.353254 
210 1 7.401 -2.467 -4.934 0.0852955 0.204942 0.424458 
211 1 7.401 -4.934 -2.467 -0.26104 0.370815 -0.154257 
212 1 4.934 -2.467 -2.467 -0.430619 0.168291 0.125245 
213 1 9.868 -4.934 -4.934 0.159032 0.332879 0.305518 
214 1 12.335 -2.467 -4.934 0.252714 0.255884 -0.316387 
215 1 12.335 -4.934 -2.467 -0.213713 -0.428231 0.0196341 
216 1 9.868 -2.467 -2.467 0.287985 0.18823 0.333279 
217 1 -14.802 -14.802 0 -0.434742 -0.192374 -0.0585899 
218 1 -12.335 -12.335 0 0.124141 0.299419 -0.352673 
219 1 -12.335 -14.802 2.467 -0.348296 0.19895 -0.26182 
220 1 -14.802 -12.335 2.467 0.104102 0.198652 -0.423251 
221 1 -9.868 -14.802 0 -0.00413047 -0.366423 0.308477 
222 1 -7.401 -12.335 0 0.00344686 -0.44017 0.188891 
223 1 -7.401 -14.802 2.467 0.337596 -0.202581 -0.27282 
224 1 -9.868 -12.335 2.467 0.415102 0.214233 -0.105995 
225 1 -4.934 -14.802 0 0.384616 0.265372 0.105306 
226 1 -2.467 -12.335 0 0.232691 -0.152063 -0.390093 
227 1 -2.467 -14.802 2.467 -0.271686 -0.229147 -0.321122 
228 1 -4.934 -12.335 2.467 -0.0505007 0.422576 0.219818 
229 1 0 -14.802 0 -0.258967 0.123281 0.383639 
230 1 2.467 -12.335 0 0.243139 -0.407492 -0.0653829 
231 1 2.467 -14.802 2.467 0.360837 -0.195758 -0.246813 
232 1 0 -12.335 2.467 0.341166 0.304049 -0.143529 
233 1 4.934 -14.802 0 0.331285 -0.34005 0.0636959 
234 1 7.401 -12.335 0 0.335158 0.329462 0.0925481 
235 1 7.401 -14.802 2.467 0.261224 0.128398 0.380417 
236 1 4.934 -12.335 2.467 0.359504 -0.128188 -0.289423 
237 1 9.868 -14.802 0 -0.349877 -0.237548 -0.22494 
238 1 12.335 -12.335 0 -0.14281 0.269187 -0.369574 
239 1 12.335 -14.802 2.467 0.389742 0.191471 -0.202191 
240 1 9.868 -12.335 2.467 0.278537 0.192605 0.338764 
241 1 -14.802 -9.868 0 0.287259 0.37867 -0.0594311 
242 1 -12.335 -7.401 0 0.305136 0.357842 0.0910054 
243 1 -12.335 -9.868 2.467 0.109361 0.351875 -0.306048 
244 1 -14.802 -7.401 2.467 -0.355802 -0.225153 -0.228368 
245 1 -9.868 -9.868 0 -0.428906 -0.121707 0.175124 
246 1 -7.401 -7.401 0 -0.355822 -0.320158 -0.0181757 
247 1 -7.401 -9.868 2.467 0.215352 -0.325271 -0.277962 
248 1 -9.868 -7.401 2.467 0.0357782 -0.339718 -0.335787 
249 1 -4.934 -9.868 0 0.226835 0.392296 0.155212 
250 1 -2.467 -7.401 0 0.236824 -0.285759 -0.302816 
251 1 -2.467 -9.868 2.467 -0.303536 0.355511 0.104495 
252 1 -4.934 -7.401 2.467 0.377967 0.148106 0.254257 
253 1 0 -9.868 0 0.128558 0.446438 0.116648 
254 1 2.467 -7.401 0 -0.471282 0.0750172 -0.0413078 
255 1 2.467 -9.868 2.467 -0.218204 0.174663 0.389 
256 1 0 -7.401 2.467 0.220865 0.363234 0.220728 
257 1 4.934 -9.868 0 0.0408748 -0.404012 0.254057 
258 1 7.401 -7.401 0 -0.385977 -0.267598 -0.0940966 
259 1 7.401 -9.868 2.467 -0.327808 -0.29282 -0.190367 
260 1 4.934 -7.401 2.467 -0.0497062 0.216769 -0.424242 
261 1 9.868 -9.868 0 -0.342896 -0.217577 0.254015 
262 1 12.335 -7.401 0 -0.345317 -0.00427557 0.331932 
263 1 12.335 -9.868 2.467 0.260101 0.140117 0.377035 
264 1 9.868 -7.401 2.467 0.306778 -0.238591 0.280005 
265 1 -14.802 -4.934 0 0.117705 -0.4642 0.010226 
266 1 -12.335 -2.467 0 0.124294 0.324929 0.329261 
267 1 -12.335 -4.934 2.467 0.190304 0.116565 0.423837 
268 1 -14.802 -2.467 2.467 0.397417 0.0807203 -0.254921 
269 1 -9.868 -4.934 0 0.210315 0.236441 -0.359589 
270 1 -7.401 -2.467 0 0.234294 -0.375026 -0.184126 
271 1 -7.401 -4.934 2.467 -0.352235 -0.057295 -0.319513 
272 1 -9.868 -2.467 2.467 0.204912 0.0495306 0.430115 
273 1 -4.934 -4.934 0 -0.078039 0.33724 -0.33109 
274 1 -2.467 -2.467 0 -0.430771 0.094244 -0.187072 
275 1 -2.467 -4.934 2.467 0.353357 0.319218 0.0517698 
276 1 -4.934 -2.467 2.467 0.124357 -0.392842 0.244236 
277 1 0 -4.934 0 -0.453261 0.125865 -0.0902959 
278 1 2.467 -2.467 0 -0.317343 -0.00811282 0.358704 
279 1 2.467 -4.934 2.467 0.0489588 0.406804 -0.248103 
280 1 0 -2.467 2.467 0.372038 -0.294283 -0.0665329 
281 1 4.934 -4.934 0 0.240452 0.348418 0.224117 
282 1 7.401 -2.467 0 0.298179 -0.0219694 0.37423 
283 1 7.401 -4.934 2.467 -0.283884 0.239369 -0.302578 
284 1 4.934 -2.467 2.467 0.156027 0.411277 -0.1896 
285 1 9.868 -4.934 0 -0.0593491 -0.245612 -0.406932 
286 1 12.335 -2.467 0 -0.147416 -0.363011 0.275559 
287 1 12.335 -4.934 2.467 0.355178 0.14518 -0.286727 
288 1 9.868 -2.467 2.467 0.327318 -0.185901 -0.296217 
289 1 -14.802 -14.802 4.934 0.00949607 0.315037 0.360697 
290 1 -12.335 -12.335 4.934 0.0462498 -0.0795662 -0.470076 
291 1 -12.335 -14.802 7.401 -0.284646 -0.366558 -0.118546 
292 1 -14.802 -12.335 7.401 -0.327081 -0.32425 0.131611 
293 1 -9.868 -14.802 4.934 -0.402284 0.177672 -0.189846 
294 1 -7.401 -12.335 4.934 0.119337 0.201797 0.417705 
295 1 -7.401 -14.802 7.401 0.213233 -0.411749 0.120145 
296 1 -9.868 -12.335 7.401 -0.149895 0.00965099 -0.45484 
297 1 -4.934 -14.802 4.934 -0.236676 0.305708 0.282786 
298 1 -2.467 -12.335 4.934 -0.205917 0.43084 -0.0376286 
299 1 -2.467 -14.802 7.401 0.320952 0.105086 -0.339688 
300 1 -4.934 -12.335 7.401 -0.207556 -0.431674 0.00435797 
301 1 0 -14.802 4.934 0.324814 0.0284985 -0.350892 
302 1 2.467 -12.335 4.934 -0.0960012 -0.071472 -0.463807 
303 1 2.467 -14.802 7.401 -0.176389 -0.420117 -0.147748 
304 1 0 -12.335 7.401 -0.0709998 -0.0577097 0.47018 
305 1 4.934 -14.802 4.934 0.430024 -0.15995 -0.137608 
306 1 7.401 -12.335 4.934 -0.292029 -0.269159 -0.267794 
307 1 7.401 -14.802 7.401 0.306944 0.317793 0.185023 
308 1 4.934 -12.335 7.401 0.324725 0.183906 -0.300289 
309 1 9.868 -14.802 4.934 0.41116 0.245725 -0.00284052 
310 1 12.335 -12.335 4.934 0.308562 0.223759 -0.290107 
311 1 12.335 -14.802 7.401 0.185184 -0.218841 0.38374 
312 1 9.868 -12.335 7.401 -0.225044 -0.246047 -0.343885 
313 1 -14.802 -9.868 4.934 -0.107555 0.386075 -0.262334 
314 1 -12.335 -7.401 4.934 -0.347477 0.136412 -0.300154 
315 1 -12.335 -9.868 7.401 0.285411 0.320353 0.212968 
316 1 -14.802 -7.401 7.401 -0.181534 -0.266805 -0.35398 
317 1 -9.868 -9.868 4.934 0.401788 0.185718 -0.183076 
318 1 -7.401 -7.401 4.934 0.325007 0.310856 -0.164865 
319 1 -7.401 -9.868 7.401 0.067429 -0.349615 0.320412 
320 1 -9.868 -7.401 7.401 0.0410077 0.0689982 0.472227 
321 1 -4.934 -9.868 4.934 -0.121023 -0.451364 -0.10519 
322 1 -2.467 -7.401 4.934 -0.118766 0.372579 0.276623 
323 1 -2.467 -9.868 7.401 -0.413172 -0.191291 0.148787 
324 1 -4.934 -7.401 7.401 0.22919 0.279488 -0.314324 
325 1 0 -9.868 4.934 -0.448302 -0.163452 0.0418283 
326 1 2.467 -7.401 4.934 0.0735788 0.45121 -0.142956 
327 1 2.467 -9.868 7.401 0.362339 0.248016 0.191414 
328 1 0 -7.401 7.401 0.425886 0.210094 0.062631 
329 1 4.934 -9.868 4.934 -0.149788 -0.308127 -0.334757 
330 1 7.401 -7.401 4.934 0.331283 0.336112 -0.0819852 
331 1 7.401 -9.868 7.401 -0.319886 0.264786 -0.238752 
332 1 4.934 -7.401 7.401 -0.365191 -0.117706 -0.286743 
333 1 9.868 -9.868 4.934 -0.00452961 -0.154671 0.453318 
334 1 12.335 -7.401 4.934 -0.207393 0.315068 -0.295231 
335 1 12.335 -9.868 7.401 0.35549 0.240813 -0.212313 
336 1 9.868 -7.401 7.401 -0.299453 -0.240975 0.285832 
337 1 -14.802 -4.934 4.934 0.249505 -0.0481548 -0.406041 
338 1 -12.335 -2.467 4.934 -0.121554 0.228819 0.402874 
339 1 -12.335 -4.934 7.401 0.323551 -0.352946 0.0136039 
340 1 -14.802 -2.467 7.401 0.258753 -0.363182 0.174891 
341 1 -9.868 -4.934 4.934 -0.337804 -0.30691 -0.145382 
342 1 -7.401 -2.467 4.934 -0.304433 0.336636 0.153093 
343 1 -7.401 -4.934 7.401 -0.345857 -0.266665 0.196759 
344 1 -9.868 -2.467 7.401 -0.113357 -0.461438 0.0605507 
345 1 -4.934 -4.934 4.934 0.197432 0.0789131 -0.429225 
346 1 -2.467 -2.467 4.934 0.209257 -0.118259 -0.414328 
347 1 -2.467 -4.934 7.401 -0.15132 0.387928 0.23676 
348 1 -4.934 -2.467 7.401 -0.35352 -0.222205 -0.234712 
349 1 0 -4.934 4.934 -0.135479 -0.269843 -0.371849 
350 1 2.467 -2.467 4.934 0.289038 0.08375 0.372672 
351 1 2.467 -4.934 7.401 -0.398999 -0.262513 -0.0364303 
352 1 0 -2.467 7.401 0.332097 -0.299064 0.172376 
353 1 4.934 -4.934 4.934 -0.167073 -0.350735 0.280202 
354 1 7.401 -2.467 4.934 -0.168652 0.207441 -0.397449 
355 1 7.401 -4.934 7.401 -0.0881527 0.332709 0.333129 
356 1 4.934 -2.467 7.401 -0.141573 -0.0363442 -0.456155 
357 1 9.868 -4.934 4.934 -0.114039 -0.39192 0.250668 
358 1 12.335 -2.467 4.934 0.342932 -0.321468 -0.0921809 
359 1 12.335 -4.934 7.401 0.393557 0.0477732 -0.268834 
360 1 9.868 -2.467 7.401 0.358644 0.237119 0.211163 
361 1 -14.802 -14.802 9.868 -0.334264 -0.196543 -0.281211 
362 1 -12.335 -12.335 9.868 -0.407419 -0.138885 -0.210147 
363 1 -12.335 -14.802 12.335 0.0487242 -0.404881 -0.251274 
364 1 -14.802 -12.335 12.335 0.37469 0.120794 0.272868 
365 1 -9.868 -14.802 9.868 -0.201748 0.393581 0.183936 
366 1 -7.401 -12.335 9.868 0.295235 0.0191181 0.376712 
367 1 -7.401 -14.802 12.335 -0.126652 -0.194389 -0.419062 
368 1 -9.868 -12.335 12.335 -0.0337639 -0.446552 -0.169978 
369 1 -4.934 -14.802 9.868 0.359943 0.313339 0.0412381 
370 1 -2.467 -12.335 9.868 0.308454 0.210462 0.300005 
371 1 -2.467 -14.802 12.335 -0.174354 0.419223 0.152624 
372 1 -4.934 -12.335 12.335 0.033139 -0.272011 0.392877 
373 1 0 -14.802 9.868 0.215475 0.152987 0.399508 
374 1 2.467 -12.335 9.868 -0.0359723 -0.474588 0.0539761 
375 1 2.467 -14.802 12.335 0.291488 0.379692 0.0175994 
376 1 0 -12.335 12.335 0.101738 0.322445 0.339293 
377 1 4.934 -14.802 9.868 -0.0932832 -0.447998 -0.141552 
378 1 7.401 -12.335 9.868 0.0943208 -0.0216279 -0.469123 
379 1 7.401 -14.802 12.335 -0.23842 -0.258671 -0.325094 
380 1 4.934 -12.335 12.335 -0.325474 0.191354 0.294774 
381 1 9.868 -14.802 9.868 -0.155979 -0.451538 0.0350012 
382 1 12.335 -12.335 9.868 0.313345 0.234464 0.276193 
383 1 12.335 -14.802 12.335 0.201899 -0.426266 -0.083516 
384 1 9.868 -12.335 12.335 0.159314 -0.436917 0.114733 
385 1 -14.802 -9.868 9.868 0.235772 -0.127484 -0.396989 
386 1 -12.335 -7.401 9.868 0.0293106 0.305766 0.367544 
387 1 -12.335 -9.868 12.335 -0.394593 0.258126 -0.0843129 
388 1 -14.802 -7.401 12.335 -0.199285 0.435553 0.00445543 
389 1 -9.868 -9.868 9.868 -0.303544 -0.236728 0.285064 
390 1 -7.401 -7.401 9.868 -0.206033 -0.402906 0.157029 
391 1 -7.401 -9.868 12.335 -0.304463 0.342946 -0.138314 
392 1 -9.868 -7.401 12.335 -0.402433 -0.2558 -0.0453358 
393 1 -4.934 -9.868 9.868 -0.17953 -0.340686 -0.284855 
394 1 -2.467 -7.401 9.868 0.338203 0.211468 0.265219 
395 1 -2.467 -9.868 12.335 0.33649 0.325034 -0.102803 
396 1 -4.934 -7.401 12.335 0.275986 0.171228 -0.35207 
397 1 0 -9.868 9.868 0.37349 -0.241534 0.177785 
398 1 2.467 -7.401 9.868 0.293911 0.210868 0.313994 
399 1 2.467 -9.868 12.335 -0.205629 0.389144 0.189009 
400 1 0 -7.401 12.335 -0.0361715 0.082392 0.470472 
401 1 4.934 -9.868 9.868 0.148098 0.452466 0.0527476 
402 1 7.401 -7.401 9.868 0.316649 0.345195 0.100074 
403 1 7.401 -9.868 12.335 -0.344573 0.0270765 -0.331629 
404 1 4.934 -7.401 12.335 0.190214 -0.249741 0.361786 
405 1 9.868 -9.868 9.868 0.389078 -0.275712 0.0451894 
406 1 12.335 -7.401 9.868 -0.438657 0.168084 -0.0936438 
407 1 12.335 -9.868 12.335 -0.244155 0.298568 -0.284054 
408 1 9.868 -7.401 12.335 0.463401 0.118669 -0.0248614 
409 1 -14.802 -4.934 9.868 0.355663 -0.177197 -0.267481 
410 1 -12.335 -2.467 9.868 0.0628001 -0.351494 -0.319295 
411 1 -12.335 -4.934 12.335 0.232259 -0.292773 0.299635 
412 1 -14.802 -2.467 12.335 -0.383199 0.156225 0.241234 
413 1 -9.868 -4.934 9.868 0.022103 -0.393948 0.271583 
414 1 -7.401 -2.467 9.868 0.233391 -0.191016 -0.372132 
415 1 -7.401 -4.934 12.335 -0.357131 0.176132 0.266226 
416 1 -9.868 -2.467 12.335 -0.246339 -0.393706 -0.117277 
417 1 -4.934 -4.934 9.868 -0.0195654 -0.279662 0.388391 
418 1 -2.467 -2.467 9.868 0.334064 0.0898537 -0.331314 
419 1 -2.467 -4.934 12.335 0.291166 -0.375475 -0.0606784 
420 1 -4.934 -2.467 12.335 -0.112783 0.287003 0.366538 
421 1 0 -4.934 9.868 -0.293641 0.232953 0.298243 
422 1 2.467 -2.467 9.868 -0.466216 0.0942371 0.0565963 
423 1 2.467 -4.934 12.335 0.148934 0.215523 0.401011 
424 1 0 -2.467 12.335 -0.267041 -0.285502 0.276801 
425 1 4.934 -4.934 9.868 -0.363705 -0.0846445 0.299992 
426 1 7.401 -2.467 9.868 -0.369545 -0.201686 -0.228473 
427 1 7.401 -4.934 12.335 0.0608348 0.389561 -0.271997 
428 1 4.934 -2.467 12.335 -0.300834 -0.318403 0.193804 
429 1 9.868 -4.934 9.868 -0.328726 0.151194 0.31388 
430 1 12.335 -2.467 9.868 -0.39519 -0.253612 -0.09459 
431 1 12.335 -4.934 12.335 0.00828469 -0.388237 -0.280436 
432 1 9.868 -2.467 12.335 -0.434693 0.200929 0.0105065 
433 1 -14.802 0 -14.802 -0.327252 -0.312637 -0.15686 
434 1 -12.335 2.467 -14.802 0.317526 -0.0842366 -0.348601 
435 1 -12.335 0 -12.335 0.2643 0.0428491 0.397178 
436 1 -14.802 2.467 -12.335 0.380252 0.29127 -0.00338148 
437 1 -9.868 0 -14.802 -0.0178075 -0.285047 -0.384541 
438 1 -7.401 2.467 -14.802 0.0289842 -0.478006 -0.0105359 
439 1 -7.401 0 -12.335 0.208681 0.246043 0.354057 
440 1 -9.868 2.467 -12.335 -0.349194 -0.259884 -0.199912 
441 1 -4.934 0 -14.802 -0.19652 -0.306389 0.311363 
442 1 -2.467 2.467 -14.802 -0.154873 -0.257407 -0.373091 
443 1 -2.467 0 -12.335 0.197621 -0.403175 0.166845 
444 1 -4.934 2.467 -12.335 -0.0863131 -0.186622 0.432623 
445 1 0 0 -14.802 -0.0719706 -0.216981 -0.420928 
446 1 2.467 2.467 -14.802 -0.0142132 0.367578 0.306798 
447 1 2.467 0 -12.335 0.0349559 -0.256988 -0.402711 
448 1 0 2.467 -12.335 0.177642 0.305764 -0.323099 
449 1 4.934 0 -14.802 -0.267006 -0.175332 -0.356942 
450 1 7.401 2.467 -14.802 0.320911 -0.3276 0.138332 
451 1 7.401 0 -12.335 0.43679 -0.186476 -0.0623082 
452 1 4.934 2.467 -12.335 0.315263 -0.092796 0.348481 
453 1 9.868 0 -14.802 0.439577 0.03399 -0.187238 
454 1 12.335 2.467 -14.802 -0.079642 0.28771 0.374595 
455 1 12.335 0 -12.335 0.330526 0.189839 -0.290094 
456 1 9.868 2.467 -12.335 -0.251631 -0.305708 -0.269565 
457 1 -14.802 4.934 -14.802 0.187552 0.414467 0.149941 
458 1 -12.335 7.401 -14.802 -0.0559731 -0.365175 -0.304886 
459 1 -12.335 4.934 -12.335 0.352924 0.102986 -0.30705 
460 1 -14.802 7.401 -12.335 0.224042 -0.21779 -0.363062 
461 1 -9.868 4.934 -14.802 0.25389 0.39546 0.0926941 
462 1 -7.401 7.401 -14.802 -0.215472 0.331327 -0.270621 
463 1 -7.401 4.934 -12.335 -0.300874 -0.176828 -0.328097 
464 1 -9.868 7.401 -12.335 0.183449 0.300252 -0.325018 
465 1 -4.934 4.934 -14.802 0.367999 0.294611 -0.0849824 
466 1 -2.467 7.401 -14.802 -0.390545 0.273244 0.0474683 
467 1 -2.467 4.934 -12.335 0.284204 0.167634 -0.347229 
468 1 -4.934 7.401 -12.335 0.250644 0.403201 -0.0636163 
469 1 0 4.934 -14.802 -0.204333 -0.305153 0.307523 
470 1 2.467 7.401 -14.802 -0.181232 0.287999 -0.337123 
471 1 2.467 4.934 -12.335 -0.119974 -0.43377 0.163985 
472 1 0 7.401 -12.335 -0.20913 -0.130586 0.410674 
473 1 4.934 4.934 -14.802 -0.145925 0.0353103 0.454863 
474 1 7.401 7.401 -14.802 0.221331 -0.127239 -0.405295 
475 1 7.401 4.934 -12.335 0.381748 0.160877 0.240474 
476 1 4.934 7.401 -12.335 -0.329163 0.0132652 0.347731 
477 1 9.868 4.934 -14.802 0.160001 -0.263641 0.366516 
478 1 12.335 7.401 -14.802 -0.313337 -0.245861 -0.266107 
479 1 12.335 4.934 -12.335 0.456572 -0.0097451 -0.144528 
480 1 9.868 7.401 -12.335 0.249238 -0.409046 0.00147887 
481 1 -14.802 9.868 -14.802 -0.199783 0.430052 0.0676936 
482 1 -12.335 12.335 -14.802 -0.298093 -0.291581 0.235716 
483 1 -12.335 9.868 -12.335 0.0590925 -0.122932 0.45917 
484 1 -14.802 12.335 -12.335 -0.244688 0.374061 0.172184 
485 1 -9.868 9.868 -14.802 0.373543 -0.294653 0.0555573 
486 1 -7.401 12.335 -14.802 0.129107 0.368788 -0.277071 
487 1 -7.401 9.868 -12.335 -0.296906 -0.372428 -0.0508452 
488 1 -9.868 12.335 -12.335 -0.0164488 -0.356011 -0.320042 
489 1 -4.934 9.868 -14.802 -0.360845 0.238974 -0.205239 
490 1 -2.467 12.335 -14.802 -0.133492 0.19352 0.417338 
491 1 -2.467 9.868 -12.335 -0.122815 0.451545 0.102297 
492 1 -4.934 12.335 -12.335 -0.313988 -0.158396 0.325212 
493 1 0 9.868 -14.802 -0.329715 0.0280777 0.346324 
494 1 2.467 12.335 -14.802 -0.159882 0.257871 0.37065 
495 1 2.467 9.868 -12.335 0.244679 -0.391606 0.127351 
496 1 0 12.335 -12.335 -0.0361917 0.469785 -0.0862174 
497 1 4.934 9.868 -14.802 -0.176149 -0.400026 0.195938 
498 1 7.401 12.335 -14.802 -0.127825 0.139961 -0.439901 
499 1 7.401 9.868 -12.335 0.269378 -0.0067097 0.396019 
500 1 4.934 12.335 -12.335 0.199542 -0.433307 -0.0432302 
501 1 9.868 9.868 -14.802 -0.304709 0.212752 0.302208 
502 1 12.335 12.335 -14.802 0.427849 -0.212802 0.0331958 
503 1 12.335 9.868 -12.335 -0.203849 0.159044 -0.403226 
504 1 9.868 12.335 -12.335 -0.23298 0.174213 0.38054 
505 1 -14.802 0 -9.868 0.218748 -0.149477 0.399058 
506 1 -12.335 2.467 -9.868 -0.354368 0.153084 -0.283601 
507 1 -12.335 0 -7.401 -0.323199 -0.243654 -0.256156 
508 1 -14.802 2.467 -7.401 -0.292626 -0.373339 -0.0665527 
509 1 -9.868 0 -9.868 0.363126 0.060012 0.30656 
510 1 -7.401 2.467 -9.868 -0.159258 0.242291 -0.381278 
511 1 -7.401 0 -7.401 0.363642 0.309931 -0.0338845 
512 1 -9.868 2.467 -7.401 0.274661 0.364041 -0.146549 
513 1 -4.934 0 -9.868 -0.336107 0.326477 -0.0994294 
514 1 -2.467 2.467 -9.868 0.211258 0.26316 -0.339938 
515 1 -2.467 0 -7.401 -0.00196909 0.245503 -0.411297 
516 1 -4.934 2.467 -7.401 -0.1517 0.440914 -0.109651 
517 1 0 0 -9.868 0.0664111 0.0798197 0.46761 
518 1 2.467 2.467 -9.868 0.306359 -0.210085 -0.302407 
519 1 2.467 0 -7.401 0.286277 0.262896 -0.27995 
520 1 0 2.467 -7.401 -0.140945 -0.357886 0.28547 
521 1 4.934 0 -9.868 0.236892 0.246008 0.335862 
522 1 7.401 2.467 -9.868 0.306625 -0.282498 -0.235833 
523 1 7.401 0 -7.401 -0.421603 0.186898 0.129464 
524 1 4.934 2.467 -7.401 -0.273828 -0.0908853 -0.38236 
525 1 9.868 0 -9.868 0.413769 0.141096 0.195775 
526 1 12.335 2.467 -9.868 0.475717 -0.0380646 -0.0410531 
527 1 12.335 0 -7.401 -0.18269 -0.242212 0.370673 
528 1 9.868 2.467 -7.401 0.359231 0.303165 -0.0921149 
529 1 -14.802 4.934 -9.868 0.298805 0.159154 -0.338861 
530 1 -12.335 7.401 -9.868 0.0492 -0.293667 -0.375206 
531 1 -12.335 4.934 -7.401 0.273051 0.361492 -0.155587 
532 1 -14.802 7.401 -7.401 0.303892 -0.369606 0.0219542 
533 1 -9.868 4.934 -9.868 0.3222 0.129346 0.329997 
534 1 -7.401 7.401 -9.868 0.284241 -0.290461 -0.253536 
535 1 -7.401 4.934 -7.401 -0.14722 -0.409387 -0.200424 
536 1 -9.868 7.401 -7.401 0.0400249 -0.444308 -0.174441 
537 1 -4.934 4.934 -9.868 -0.445117 0.0663032 0.16406 