LAMMPS 'data.' description 

       15 atoms
       14 bonds
       16 angles

        6 atom types
        5 bond types
        5 angle types

    -20 40      xlo xhi
    -20 40      ylo yhi
    -20 40      zlo zhi

Atoms

      1    2     4.2500     4.2500    17.5000      1   0.70   0.00000   0.00000   0.00000  5.4  1.1
      2    3     4.2500     4.2500    15.5000      1  -0.70   0.00000   0.00000   0.00000  5.2  1.2
      3    4     4.2500     4.2500    13.5000      1   0.00  -0.12260   0.09157  -0.29589  4.6  1.2
      4    5     2.1250     4.2500    11.5000      1   0.00   0.16260   0.37619  -0.07368  4.6  1.2
      5    6     2.1250     4.2500     9.5000      1   0.00   0.00000   0.00000   0.00000  4.5  0.9
      6    6     2.1250     4.2500     7.5000      1   0.00   0.00000   0.00000   0.00000  4.5  0.9
      7    6     2.1250     4.2500     5.5000      1   0.00   0.00000   0.00000   0.00000  4.5  0.9
      8    6     2.1250     4.2500     3.5000      1   0.00   0.00000   0.00000   0.00000  4.5  0.9
      9    6     2.1250     4.2500     1.5000      1   0.00   0.00000   0.00000   0.00000  4.5  0.9
     10    5     6.3750     4.2500    11.5000      1   0.00  -0.16562   0.12702  -0.36031  4.6  1.2
     11    6     6.3750     4.2500     9.5000      1   0.00   0.00000   0.00000   0.00000  4.5  0.9
     12    6     6.3750     4.2500     7.5000      1   0.00   0.00000   0.00000   0.00000  4.5  0.9
     13    6     6.3750     4.2500     5.5000      1   0.00   0.00000   0.00000   0.00000  4.5  0.9
     14    6     6.3750     4.2500     3.5000      1   0.00   0.00000   0.00000   0.00000  4.5  0.9
     15    6     6.3750     4.2500     1.5000      1   0.00   0.00000   0.00000   0.00000  4.5  0.9

Bonds

      1    1       1       2
      2    2       2       3
      3    3       3       4
      4    3       3      10
      5    4       4       5
      6    5       5       6
      7    5       6       7
      8    5       7       8
      9    5       8       9
     10    4      10      11
     11    5      11      12
     12    5      12      13
     13    5      13      14
     14    5      14      15

Angles

      1    1       1       2       3
      2    2       2       3       4
      3    2       2       3      10
      4    5       3       2       2
      5    5       4       5       5
      6    5      10      11      11
      7    3       3       4       5
      8    3       4       5       6
      9    4       5       6       7
     10    3       6       7       8
     11    3       7       8       9
     12    3       3      10      11
     13    3      10      11      12
     14    4      11      12      13
     15    3      12      13      14
     16    3      13      14      15
