LAMMPS 'data.' input file - made with Brahms (http://code.google.com/p/brahms-md)

      376 atoms
      112 bonds
      128 angles

        7 atom types
        6 bond types
        5 angle types

         -8.5          8.5      xlo xhi
         -8.5          8.5      ylo yhi
        -31.5         31.5      zlo zhi

Atoms

      1    7    -4.2500    -4.2500    17.5000      1   0.70   0.00000   0.00000   0.00000  4.5  0.9
      2    3    -4.2500    -4.2500    15.5000      1  -0.70   0.00000   0.00000   0.00000  5.2  1.2
      3    4    -4.2500    -4.2500    13.5000      1   0.00   0.24211  -0.03342   0.22635  4.6  1.2
      4    5    -6.3750    -4.2500    11.5000      1   0.00  -0.09468   0.39574   0.08840  4.6  1.2
      5    6    -6.3750    -4.2500     9.5000      1   0.00   0.00000   0.00000   0.00000  4.5  0.9
      6    6    -6.3750    -4.2500     7.5000      1   0.00   0.00000   0.00000   0.00000  4.5  0.9
      7    6    -6.3750    -4.2500     5.5000      1   0.00   0.00000   0.00000   0.00000  4.5  0.9
      8    6    -6.3750    -4.2500     3.5000      1   0.00   0.00000   0.00000   0.00000  4.5  0.9
      9    6    -6.3750    -4.2500     1.5000      1   0.00   0.00000   0.00000   0.00000  4.5  0.9
     10    5    -2.1250    -4.2500    11.5000      1   0.00  -0.03308  -0.02118  -0.41454  4.6  1.2
     11    6    -2.1250    -4.2500     9.5000      1   0.00   0.00000   0.00000   0.00000  4.5  0.9
     12    6    -2.1250    -4.2500     7.5000      1   0.00   0.00000   0.00000   0.00000  4.5  0.9
     13    6    -2.1250    -4.2500     5.5000      1   0.00   0.00000   0.00000   0.00000  4.5  0.9
     14    6    -2.1250    -4.2500     3.5000      1   0.00   0.00000   0.00000   0.00000  4.5  0.9
     15    6    -2.1250    -4.2500     1.5000      1   0.00   0.00000   0.00000   0.00000  4.5  0.9
     16    7    -4.2500    -4.2500   -17.5000      2   0.70   0.00000   0.00000   0.00000  4.5  0.9
     17    3    -4.2500    -4.2500   -15.5000      2  -0.70   0.00000   0.00000   0.00000  5.2  1.2
     18    4    -4.2500    -4.2500   -13.5000      2   0.00  -0.04343   0.17270  -0.28152  4.6  1.2
     19    5    -4.2500    -6.3750   -11.5000      2   0.00  -0.40867  -0.07954   0.00690  4.6  1.2
     20    6    -4.2500    -6.3750    -9.5000      2   0.00   0.00000   0.00000   0.00000  4.5  0.9
     21    6    -4.2500    -6.3750    -7.5000      2   0.00   0.00000   0.00000   0.00000  4.5  0.9
     22    6    -4.2500    -6.3750    -5.5000      2   0.00   0.00000   0.00000   0.00000  4.5  0.9
     23    6    -4.2500    -6.3750    -3.5000      2   0.00   0.00000   0.00000   0.00000  4.5  0.9
     24    6    -4.2500    -6.3750    -1.5000      2   0.00   0.00000   0.00000   0.00000  4.5  0.9
     25    5    -4.2500    -2.1250   -11.5000      2   0.00   0.03339   0.40934   0.06863  4.6  1.2
     26    6    -4.2500    -2.1250    -9.5000      2   0.00   0.00000   0.00000   0.00000  4.5  0.9
     27    6    -4.2500    -2.1250    -7.5000      2   0.00   0.00000   0.00000   0.00000  4.5  0.9
     28    6    -4.2500    -2.1250    -5.5000      2   0.00   0.00000   0.00000   0.00000  4.5  0.9
     29    6    -4.2500    -2.1250    -3.5000      2   0.00   0.00000   0.00000   0.00000  4.5  0.9
     30    6    -4.2500    -2.1250    -1.5000      2   0.00   0.00000   0.00000   0.00000  4.5  0.9
     31    2     4.2500    -4.2500    17.5000      3   0.70   0.00000   0.00000   0.00000  5.4  1.1
     32    3     4.2500    -4.2500    15.5000      3  -0.70   0.00000   0.00000   0.00000  5.2  1.2
     33    4     4.2500    -4.2500    13.5000      3   0.00   0.04687   0.29162  -0.15404  4.6  1.2
     34    5     2.1250    -4.2500    11.5000      3   0.00  -0.13069  -0.30092  -0.25643  4.6  1.2
     35    6     2.1250    -4.2500     9.5000      3   0.00   0.00000   0.00000   0.00000  4.5  0.9
     36    6     2.1250    -4.2500     7.5000      3   0.00   0.00000   0.00000   0.00000  4.5  0.9
     37    6     2.1250    -4.2500     5.5000      3   0.00   0.00000   0.00000   0.00000  4.5  0.9
     38    6     2.1250    -4.2500     3.5000      3   0.00   0.00000   0.00000   0.00000  4.5  0.9
     39    6     2.1250    -4.2500     1.5000      3   0.00   0.00000   0.00000   0.00000  4.5  0.9
     40    5     6.3750    -4.2500    11.5000      3   0.00   0.34085   0.02281   0.23810  4.6  1.2
     41    6     6.3750    -4.2500     9.5000      3   0.00   0.00000   0.00000   0.00000  4.5  0.9
     42    6     6.3750    -4.2500     7.5000      3   0.00   0.00000   0.00000   0.00000  4.5  0.9
     43    6     6.3750    -4.2500     5.5000      3   0.00   0.00000   0.00000   0.00000  4.5  0.9
     44    6     6.3750    -4.2500     3.5000      3   0.00   0.00000   0.00000   0.00000  4.5  0.9
     45    6     6.3750    -4.2500     1.5000      3   0.00   0.00000   0.00000   0.00000  4.5  0.9
     46    2     4.2500    -4.2500   -17.5000      4   0.70   0.00000   0.00000   0.00000  5.4  1.1
     47    3     4.2500    -4.2500   -15.5000      4  -0.70   0.00000   0.00000   0.00000  5.2  1.2
     48    4     4.2500    -4.2500   -13.5000      4   0.00  -0.18092   0.11584  -0.25459  4.6  1.2
     49    5     4.2500    -6.3750   -11.5000      4   0.00  -0.25703   0.32622   0.03013  4.6  1.2
     50    6     4.2500    -6.3750    -9.5000      4   0.00   0.00000   0.00000   0.00000  4.5  0.9
     51    6     4.2500    -6.3750    -7.5000      4   0.00   0.00000   0.00000   0.00000  4.5  0.9
     52    6     4.2500    -6.3750    -5.5000      4   0.00   0.00000   0.00000   0.00000  4.5  0.9
     53    6     4.2500    -6.3750    -3.5000      4   0.00   0.00000   0.00000   0.00000  4.5  0.9
     54    6     4.2500    -6.3750    -1.5000      4   0.00   0.00000   0.00000   0.00000  4.5  0.9
     55    5     4.2500    -2.1250   -11.5000      4   0.00   0.38508  -0.15734  -0.01870  4.6  1.2
     56    6     4.2500    -2.1250    -9.5000      4   0.00   0.00000   0.00000   0.00000  4.5  0.9
     57    6     4.2500    -2.1250    -7.5000      4   0.00   0.00000   0.00000   0.00000  4.5  0.9
     58    6     4.2500    -2.1250    -5.5000      4   0.00   0.00000   0.00000   0.00000  4.5  0.9
     59    6     4.2500    -2.1250    -3.5000      4   0.00   0.00000   0.00000   0.00000  4.5  0.9
     60    6     4.2500    -2.1250    -1.5000      4   0.00   0.00000   0.00000   0.00000  4.5  0.9
     61    2    -4.2500     4.2500    17.5000      5   0.70   0.00000   0.00000   0.00000  5.4  1.1
     62    3    -4.2500     4.2500    15.5000      5  -0.70   0.00000   0.00000   0.00000  5.2  1.2
     63    4    -4.2500     4.2500    13.5000      5   0.00   0.20321   0.25884  -0.05177  4.6  1.2
     64    5    -6.3750     4.2500    11.5000      5   0.00  -0.18184   0.23516  -0.29159  4.6  1.2
     65    6    -6.3750     4.2500     9.5000      5   0.00   0.00000   0.00000   0.00000  4.5  0.9
     66    6    -6.3750     4.2500     7.5000      5   0.00   0.00000   0.00000   0.00000  4.5  0.9
     67    6    -6.3750     4.2500     5.5000      5   0.00   0.00000   0.00000   0.00000  4.5  0.9
     68    6    -6.3750     4.2500     3.5000      5   0.00   0.00000   0.00000   0.00000  4.5  0.9
     69    6    -6.3750     4.2500     1.5000      5   0.00   0.00000   0.00000   0.00000  4.5  0.9
     70    5    -2.1250     4.2500    11.5000      5   0.00  -0.26202  -0.02201  -0.32288  4.6  1.2
     71    6    -2.1250     4.2500     9.5000      5   0.00   0.00000   0.00000   0.00000  4.5  0.9
     72    6    -2.1250     4.2500     7.5000      5   0.00   0.00000   0.00000   0.00000  4.5  0.9
     73    6    -2.1250     4.2500     5.5000      5   0.00   0.00000   0.00000   0.00000  4.5  0.9
     74    6    -2.1250     4.2500     3.5000      5   0.00   0.00000   0.00000   0.00000  4.5  0.9
     75    6    -2.1250     4.2500     1.5000      5   0.00   0.00000   0.00000   0.00000  4.5  0.9
     76    2    -4.2500     4.2500   -17.5000      6   0.70   0.00000   0.00000   0.00000  5.4  1.1
     77    3    -4.2500     4.2500   -15.5000      6  -0.70   0.00000   0.00000   0.00000  5.2  1.2
     78    4    -4.2500     4.2500   -13.5000      6   0.00   0.06380  -0.09045  -0.31419  4.6  1.2
     79    5    -4.2500     2.1250   -11.5000      6   0.00  -0.29497  -0.28903  -0.05336  4.6  1.2
     80    6    -4.2500     2.1250    -9.5000      6   0.00   0.00000   0.00000   0.00000  4.5  0.9
     81    6    -4.2500     2.1250    -7.5000      6   0.00   0.00000   0.00000   0.00000  4.5  0.9
     82    6    -4.2500     2.1250    -5.5000      6   0.00   0.00000   0.00000   0.00000  4.5  0.9
     83    6    -4.2500     2.1250    -3.5000      6   0.00   0.00000   0.00000   0.00000  4.5  0.9
     84    6    -4.2500     2.1250    -1.5000      6   0.00   0.00000   0.00000   0.00000  4.5  0.9
     85    5    -4.2500     6.3750   -11.5000      6   0.00   0.05065  -0.27767   0.30614  4.6  1.2
     86    6    -4.2500     6.3750    -9.5000      6   0.00   0.00000   0.00000   0.00000  4.5  0.9
     87    6    -4.2500     6.3750    -7.5000      6   0.00   0.00000   0.00000   0.00000  4.5  0.9
     88    6    -4.2500     6.3750    -5.5000      6   0.00   0.00000   0.00000   0.00000  4.5  0.9
     89    6    -4.2500     6.3750    -3.5000      6   0.00   0.00000   0.00000   0.00000  4.5  0.9
     90    6    -4.2500     6.3750    -1.5000      6   0.00   0.00000   0.00000   0.00000  4.5  0.9
     91    7     4.2500     4.2500    17.5000      7   0.70   0.00000   0.00000   0.00000  4.5  0.9
     92    3     4.2500     4.2500    15.5000      7  -0.70   0.00000   0.00000   0.00000  5.2  1.2
     93    4     4.2500     4.2500    13.5000      7   0.00  -0.12260   0.09157  -0.29589  4.6  1.2
     94    5     2.1250     4.2500    11.5000      7   0.00   0.16260   0.37619  -0.07368  4.6  1.2
     95    6     2.1250     4.2500     9.5000      7   0.00   0.00000   0.00000   0.00000  4.5  0.9
     96    6     2.1250     4.2500     7.5000      7   0.00   0.00000   0.00000   0.00000  4.5  0.9
     97    6     2.1250     4.2500     5.5000      7   0.00   0.00000   0.00000   0.00000  4.5  0.9
     98    6     2.1250     4.2500     3.5000      7   0.00   0.00000   0.00000   0.00000  4.5  0.9
     99    6     2.1250     4.2500     1.5000      7   0.00   0.00000   0.00000   0.00000  4.5  0.9
    100    5     6.3750     4.2500    11.5000      7   0.00  -0.16562   0.12702  -0.36031  4.6  1.2
    101    6     6.3750     4.2500     9.5000      7   0.00   0.00000   0.00000   0.00000  4.5  0.9
    102    6     6.3750     4.2500     7.5000      7   0.00   0.00000   0.00000   0.00000  4.5  0.9
    103    6     6.3750     4.2500     5.5000      7   0.00   0.00000   0.00000   0.00000  4.5  0.9
    104    6     6.3750     4.2500     3.5000      7   0.00   0.00000   0.00000   0.00000  4.5  0.9
    105    6     6.3750     4.2500     1.5000      7   0.00   0.00000   0.00000   0.00000  4.5  0.9
    106    7     4.2500     4.2500   -17.5000      8   0.70   0.00000   0.00000   0.00000  4.5  0.9
    107    3     4.2500     4.2500   -15.5000      8  -0.70   0.00000   0.00000   0.00000  5.2  1.2
    108    4     4.2500     4.2500   -13.5000      8   0.00  -0.21793   0.17724   0.17905  4.6  1.2
    109    5     4.2500     2.1250   -11.5000      8   0.00  -0.24917   0.32929  -0.05353  4.6  1.2
    110    6     4.2500     2.1250    -9.5000      8   0.00   0.00000   0.00000   0.00000  4.5  0.9
    111    6     4.2500     2.1250    -7.5000      8   0.00   0.00000   0.00000   0.00000  4.5  0.9
    112    6     4.2500     2.1250    -5.5000      8   0.00   0.00000   0.00000   0.00000  4.5  0.9
    113    6     4.2500     2.1250    -3.5000      8   0.00   0.00000   0.00000   0.00000  4.5  0.9
    114    6     4.2500     2.1250    -1.5000      8   0.00   0.00000   0.00000   0.00000  4.5  0.9
    115    5     4.2500     6.3750   -11.5000      8   0.00  -0.13899  -0.07344   0.38558  4.6  1.2
    116    6     4.2500     6.3750    -9.5000      8   0.00   0.00000   0.00000   0.00000  4.5  0.9
    117    6     4.2500     6.3750    -7.5000      8   0.00   0.00000   0.00000   0.00000  4.5  0.9
    118    6     4.2500     6.3750    -5.5000      8   0.00   0.00000   0.00000   0.00000  4.5  0.9
    119    6     4.2500     6.3750    -3.5000      8   0.00   0.00000   0.00000   0.00000  4.5  0.9
    120    6     4.2500     6.3750    -1.5000      8   0.00   0.00000   0.00000   0.00000  4.5  0.9
    121    1    -7.4375    -7.4375    22.0500      0   0.00   0.26825  -0.06038  -0.46629  3.0  2.7
    122    1    -5.3125    -7.4375    22.0500      0   0.00  -0.29503   0.45279   0.03110  3.0  2.7
    123    1    -3.1875    -7.4375    22.0500      0   0.00  -0.19631  -0.48592   0.13553  3.0  2.7
    124    1    -1.0625    -7.4375    22.0500      0   0.00  -0.28298  -0.19862  -0.41654  3.0  2.7
    125    1     1.0625    -7.4375    22.0500      0   0.00  -0.30998  -0.44319   0.02293  3.0  2.7
    126    1     3.1875    -7.4375    22.0500      0   0.00  -0.47528   0.25824   0.02119  3.0  2.7
    127    1     5.3125    -7.4375    22.0500      0   0.00   0.41735   0.31581  -0.13826  3.0  2.7
    128    1     7.4375    -7.4375    22.0500      0   0.00   0.05666  -0.19992  -0.49985  3.0  2.7
    129    1    -7.4375    -5.3125    22.0500      0   0.00   0.52550  -0.01364   0.12918  3.0  2.7
    130    1    -5.3125    -5.3125    22.0500      0   0.00  -0.02043  -0.50642   0.19012  3.0  2.7
    131    1    -3.1875    -5.3125    22.0500      0   0.00  -0.15950  -0.44174   0.26916  3.0  2.7
    132    1    -1.0625    -5.3125    22.0500      0   0.00  -0.28604  -0.28030   0.36419  3.0  2.7
    133    1     1.0625    -5.3125    22.0500      0   0.00   0.46663  -0.19008   0.19786  3.0  2.7
    134    1     3.1875    -5.3125    22.0500      0   0.00  -0.41643   0.21394   0.27174  3.0  2.7
    135    1     5.3125    -5.3125    22.0500      0   0.00   0.03554  -0.51066  -0.17603  3.0  2.7
    136    1     7.4375    -5.3125    22.0500      0   0.00  -0.11110  -0.51376  -0.12935  3.0  2.7
    137    1    -7.4375    -3.1875    22.0500      0   0.00   0.43923   0.09887   0.30054  3.0  2.7
    138    1    -5.3125    -3.1875    22.0500      0   0.00  -0.15049   0.43759  -0.28089  3.0  2.7
    139    1    -3.1875    -3.1875    22.0500      0   0.00   0.26452  -0.06446   0.46787  3.0  2.7
    140    1    -1.0625    -3.1875    22.0500      0   0.00   0.04331  -0.53582  -0.06361  3.0  2.7
    141    1     1.0625    -3.1875    22.0500      0   0.00  -0.33377   0.20245  -0.37502  3.0  2.7
    142    1     3.1875    -3.1875    22.0500      0   0.00  -0.38935  -0.06416  -0.37057  3.0  2.7
    143    1     5.3125    -3.1875    22.0500      0   0.00   0.29526   0.45294  -0.02633  3.0  2.7
    144    1     7.4375    -3.1875    22.0500      0   0.00   0.25604   0.46966   0.08300  3.0  2.7
    145    1    -7.4375    -1.0625    22.0500      0   0.00   0.29421   0.38562   0.24034  3.0  2.7
    146    1    -5.3125    -1.0625    22.0500      0   0.00   0.06487  -0.53356  -0.06426  3.0  2.7
    147    1    -3.1875    -1.0625    22.0500      0   0.00  -0.10266   0.17253  -0.50271  3.0  2.7
    148    1    -1.0625    -1.0625    22.0500      0   0.00  -0.40833  -0.21873   0.28009  3.0  2.7
    149    1     1.0625    -1.0625    22.0500      0   0.00   0.24812  -0.22956  -0.42280  3.0  2.7
    150    1     3.1875    -1.0625    22.0500      0   0.00  -0.25446  -0.32318   0.35190  3.0  2.7
    151    1     5.3125    -1.0625    22.0500      0   0.00   0.47477  -0.22903  -0.12313  3.0  2.7
    152    1     7.4375    -1.0625    22.0500      0   0.00  -0.48703  -0.22880   0.05898  3.0  2.7
    153    1    -7.4375     1.0625    22.0500      0   0.00   0.24745   0.43205  -0.21242  3.0  2.7
    154    1    -5.3125     1.0625    22.0500      0   0.00   0.02598   0.24236   0.48334  3.0  2.7
    155    1    -3.1875     1.0625    22.0500      0   0.00  -0.24365  -0.08554  -0.47576  3.0  2.7
    156    1    -1.0625     1.0625    22.0500      0   0.00   0.18868   0.32532  -0.38935  3.0  2.7
    157    1     1.0625     1.0625    22.0500      0   0.00   0.29482   0.34809   0.29145  3.0  2.7
    158    1     3.1875     1.0625    22.0500      0   0.00   0.37164   0.30558  -0.24805  3.0  2.7
    159    1     5.3125     1.0625    22.0500      0   0.00   0.41626   0.26511  -0.22243  3.0  2.7
    160    1     7.4375     1.0625    22.0500      0   0.00   0.52026  -0.05130   0.14043  3.0  2.7
    161    1    -7.4375     3.1875    22.0500      0   0.00  -0.05481  -0.32640  -0.42835  3.0  2.7
    162    1    -5.3125     3.1875    22.0500      0   0.00  -0.09424  -0.52700  -0.08008  3.0  2.7
    163    1    -3.1875     3.1875    22.0500      0   0.00   0.18339   0.50418   0.07208  3.0  2.7
    164    1    -1.0625     3.1875    22.0500      0   0.00   0.18099  -0.46898   0.20082  3.0  2.7
    165    1     1.0625     3.1875    22.0500      0   0.00   0.01563  -0.50451   0.19557  3.0  2.7
    166    1     3.1875     3.1875    22.0500      0   0.00   0.13651  -0.39874  -0.33970  3.0  2.7
    167    1     5.3125     3.1875    22.0500      0   0.00   0.52893  -0.11449  -0.01224  3.0  2.7
    168    1     7.4375     3.1875    22.0500      0   0.00   0.10077  -0.11446   0.51939  3.0  2.7
    169    1    -7.4375     5.3125    22.0500      0   0.00   0.06698   0.38392  -0.37569  3.0  2.7
    170    1    -5.3125     5.3125    22.0500      0   0.00   0.41731   0.25759   0.22919  3.0  2.7
    171    1    -3.1875     5.3125    22.0500      0   0.00   0.18398   0.47945   0.17117  3.0  2.7
    172    1    -1.0625     5.3125    22.0500      0   0.00  -0.18596   0.09498   0.49943  3.0  2.7
    173    1     1.0625     5.3125    22.0500      0   0.00   0.26410   0.36313   0.30234  3.0  2.7
    174    1     3.1875     5.3125    22.0500      0   0.00   0.48010  -0.08190  -0.23627  3.0  2.7
    175    1     5.3125     5.3125    22.0500      0   0.00   0.21251   0.16431   0.46997  3.0  2.7
    176    1     7.4375     5.3125    22.0500      0   0.00  -0.17082  -0.36956  -0.35676  3.0  2.7
    177    1    -7.4375     7.4375    22.0500      0   0.00   0.27882  -0.16091   0.43520  3.0  2.7
    178    1    -5.3125     7.4375    22.0500      0   0.00   0.45159  -0.26308  -0.14103  3.0  2.7
    179    1    -3.1875     7.4375    22.0500      0   0.00   0.10506   0.46273   0.26053  3.0  2.7
    180    1    -1.0625     7.4375    22.0500      0   0.00   0.39374   0.29595  -0.22452  3.0  2.7
    181    1     1.0625     7.4375    22.0500      0   0.00   0.51502   0.14830   0.07606  3.0  2.7
    182    1     3.1875     7.4375    22.0500      0   0.00  -0.18845   0.48926   0.13469  3.0  2.7
    183    1     5.3125     7.4375    22.0500      0   0.00  -0.08605   0.21774   0.48807  3.0  2.7
    184    1     7.4375     7.4375    22.0500      0   0.00   0.38592   0.33694   0.17483  3.0  2.7
    185    1    -7.4375    -7.4375    28.3500      0   0.00   0.09710  -0.53241   0.01171  3.0  2.7
    186    1    -5.3125    -7.4375    28.3500      0   0.00  -0.16754  -0.44629   0.25648  3.0  2.7
    187    1    -3.1875    -7.4375    28.3500      0   0.00  -0.31533   0.38343  -0.21581  3.0  2.7
    188    1    -1.0625    -7.4375    28.3500      0   0.00   0.37848   0.38698  -0.00518  3.0  2.7
    189    1     1.0625    -7.4375    28.3500      0   0.00   0.04835   0.53525  -0.06482  3.0  2.7
    190    1     3.1875    -7.4375    28.3500      0   0.00   0.19304  -0.41834   0.28418  3.0  2.7
    191    1     5.3125    -7.4375    28.3500      0   0.00  -0.22576  -0.49139  -0.02434  3.0  2.7
    192    1     7.4375    -7.4375    28.3500      0   0.00  -0.33857   0.07434   0.41578  3.0  2.7
    193    1    -7.4375    -5.3125    28.3500      0   0.00  -0.20475   0.21903   0.45070  3.0  2.7
    194    1    -5.3125    -5.3125    28.3500      0   0.00  -0.52367   0.00371  -0.13704  3.0  2.7
    195    1    -3.1875    -5.3125    28.3500      0   0.00  -0.51738   0.04681   0.15216  3.0  2.7
    196    1    -1.0625    -5.3125    28.3500      0   0.00   0.11037   0.20153  -0.49013  3.0  2.7
    197    1     1.0625    -5.3125    28.3500      0   0.00   0.11622   0.29000   0.44206  3.0  2.7
    198    1     3.1875    -5.3125    28.3500      0   0.00  -0.02844  -0.53781  -0.05461  3.0  2.7
    199    1     5.3125    -5.3125    28.3500      0   0.00  -0.05338  -0.53805  -0.02608  3.0  2.7
    200    1     7.4375    -5.3125    28.3500      0   0.00  -0.37413   0.30393  -0.24634  3.0  2.7
    201    1    -7.4375    -3.1875    28.3500      0   0.00  -0.03640   0.39642  -0.36681  3.0  2.7
    202    1    -5.3125    -3.1875    28.3500      0   0.00   0.49849  -0.11862  -0.17453  3.0  2.7
    203    1    -3.1875    -3.1875    28.3500      0   0.00  -0.05196  -0.40882   0.35099  3.0  2.7
    204    1    -1.0625    -3.1875    28.3500      0   0.00   0.37517   0.26036  -0.29067  3.0  2.7
    205    1     1.0625    -3.1875    28.3500      0   0.00  -0.01131   0.52396  -0.13550  3.0  2.7
    206    1     3.1875    -3.1875    28.3500      0   0.00  -0.31695   0.34269  -0.27410  3.0  2.7
    207    1     5.3125    -3.1875    28.3500      0   0.00  -0.12361  -0.30733   0.42813  3.0  2.7
    208    1     7.4375    -3.1875    28.3500      0   0.00  -0.24053   0.48475   0.01375  3.0  2.7
    209    1    -7.4375    -1.0625    28.3500      0   0.00   0.53251  -0.09676   0.00976  3.0  2.7
    210    1    -5.3125    -1.0625    28.3500      0   0.00   0.24015  -0.29043  -0.38860  3.0  2.7
    211    1    -3.1875    -1.0625    28.3500      0   0.00  -0.10747  -0.34531  -0.40279  3.0  2.7
    212    1    -1.0625    -1.0625    28.3500      0   0.00  -0.44031  -0.21604  -0.22909  3.0  2.7
    213    1     1.0625    -1.0625    28.3500      0   0.00  -0.25081  -0.38470  -0.28659  3.0  2.7
    214    1     3.1875    -1.0625    28.3500      0   0.00   0.02832   0.50695   0.18770  3.0  2.7
    215    1     5.3125    -1.0625    28.3500      0   0.00   0.04797   0.48510   0.23538  3.0  2.7
    216    1     7.4375    -1.0625    28.3500      0   0.00  -0.00072   0.54098   0.01930  3.0  2.7
    217    1    -7.4375     1.0625    28.3500      0   0.00   0.43886   0.22083   0.22730  3.0  2.7
    218    1    -5.3125     1.0625    28.3500      0   0.00   0.48406  -0.10206  -0.21976  3.0  2.7
    219    1    -3.1875     1.0625    28.3500      0   0.00   0.45333  -0.00523  -0.29579  3.0  2.7
    220    1    -1.0625     1.0625    28.3500      0   0.00   0.37340   0.39036   0.03490  3.0  2.7
    221    1     1.0625     1.0625    28.3500      0   0.00  -0.04662  -0.53882   0.02285  3.0  2.7
    222    1     3.1875     1.0625    28.3500      0   0.00   0.28015   0.45517   0.08583  3.0  2.7
    223    1     5.3125     1.0625    28.3500      0   0.00   0.35701  -0.34005  -0.22347  3.0  2.7
    224    1     7.4375     1.0625    28.3500      0   0.00   0.51856   0.13212  -0.08166  3.0  2.7
    225    1    -7.4375     3.1875    28.3500      0   0.00  -0.18557   0.14083  -0.48863  3.0  2.7
    226    1    -5.3125     3.1875    28.3500      0   0.00  -0.39315  -0.35588   0.10869  3.0  2.7
    227    1    -3.1875     3.1875    28.3500      0   0.00  -0.28898   0.28198  -0.36056  3.0  2.7
    228    1    -1.0625     3.1875    28.3500      0   0.00  -0.12662   0.31980   0.41800  3.0  2.7
    229    1     1.0625     3.1875    28.3500      0   0.00  -0.42860  -0.33062   0.00437  3.0  2.7
    230    1     3.1875     3.1875    28.3500      0   0.00   0.52910   0.09656   0.06129  3.0  2.7
    231    1     5.3125     3.1875    28.3500      0   0.00  -0.46488  -0.26542  -0.08042  3.0  2.7
    232    1     7.4375     3.1875    28.3500      0   0.00  -0.48203  -0.23011   0.08791  3.0  2.7
    233    1    -7.4375     5.3125    28.3500      0   0.00  -0.25181  -0.47877  -0.01995  3.0  2.7
    234    1    -5.3125     5.3125    28.3500      0   0.00  -0.51094   0.15887  -0.08202  3.0  2.7
    235    1    -3.1875     5.3125    28.3500      0   0.00  -0.02742  -0.48233  -0.24421  3.0  2.7
    236    1    -1.0625     5.3125    28.3500      0   0.00  -0.19049  -0.24388  -0.44414  3.0  2.7
    237    1     1.0625     5.3125    28.3500      0   0.00   0.01131  -0.49019  -0.22938  3.0  2.7
    238    1     3.1875     5.3125    28.3500      0   0.00  -0.01131  -0.53479   0.08308  3.0  2.7
    239    1     5.3125     5.3125    28.3500      0   0.00  -0.19245   0.25415  -0.43749  3.0  2.7
    240    1     7.4375     5.3125    28.3500      0   0.00   0.10592  -0.30475   0.43467  3.0  2.7
    241    1    -7.4375     7.4375    28.3500      0   0.00   0.05399  -0.45681  -0.28537  3.0  2.7
    242    1    -5.3125     7.4375    28.3500      0   0.00   0.20852  -0.00386   0.49953  3.0  2.7
    243    1    -3.1875     7.4375    28.3500      0   0.00   0.35245   0.40562  -0.06540  3.0  2.7
    244    1    -1.0625     7.4375    28.3500      0   0.00   0.31911  -0.22605  -0.37430  3.0  2.7
    245    1     1.0625     7.4375    28.3500      0   0.00   0.33875  -0.14876  -0.39515  3.0  2.7
    246    1     3.1875     7.4375    28.3500      0   0.00   0.05855   0.33280  -0.42290  3.0  2.7
    247    1     5.3125     7.4375    28.3500      0   0.00  -0.25897   0.42440  -0.21411  3.0  2.7
    248    1     7.4375     7.4375    28.3500      0   0.00  -0.45489   0.25308  -0.14852  3.0  2.7
    249    1    -7.4375    -7.4375   -28.3500      0   0.00  -0.10042  -0.52462   0.08784  3.0  2.7
    250    1    -5.3125    -7.4375   -28.3500      0   0.00  -0.33126  -0.11348   0.41282  3.0  2.7
    251    1    -3.1875    -7.4375   -28.3500      0   0.00   0.15522   0.06001  -0.51510  3.0  2.7
    252    1    -1.0625    -7.4375   -28.3500      0   0.00   0.01954   0.00571   0.54094  3.0  2.7
    253    1     1.0625    -7.4375   -28.3500      0   0.00   0.33980   0.38682  -0.16712  3.0  2.7
    254    1     3.1875    -7.4375   -28.3500      0   0.00   0.43820   0.29451   0.11946  3.0  2.7
    255    1     5.3125    -7.4375   -28.3500      0   0.00   0.46102   0.04479   0.28015  3.0  2.7
    256    1     7.4375    -7.4375   -28.3500      0   0.00  -0.42192   0.33121   0.07288  3.0  2.7
    257    1    -7.4375    -5.3125   -28.3500      0   0.00   0.10074   0.29560   0.44215  3.0  2.7
    258    1    -5.3125    -5.3125   -28.3500      0   0.00  -0.52380   0.12762  -0.04870  3.0  2.7
    259    1    -3.1875    -5.3125   -28.3500      0   0.00  -0.20750   0.23705   0.44021  3.0  2.7
    260    1    -1.0625    -5.3125   -28.3500      0   0.00   0.14133  -0.20594   0.48025  3.0  2.7
    261    1     1.0625    -5.3125   -28.3500      0   0.00   0.34223   0.41805   0.03380  3.0  2.7
    262    1     3.1875    -5.3125   -28.3500      0   0.00   0.40319  -0.28235  -0.22526  3.0  2.7
    263    1     5.3125    -5.3125   -28.3500      0   0.00   0.00381   0.25336  -0.47835  3.0  2.7
    264    1     7.4375    -5.3125   -28.3500      0   0.00  -0.21576   0.46949   0.16142  3.0  2.7
    265    1    -7.4375    -3.1875   -28.3500      0   0.00  -0.27033   0.33503  -0.32819  3.0  2.7
    266    1    -5.3125    -3.1875   -28.3500      0   0.00  -0.50070  -0.06337   0.19573  3.0  2.7
    267    1    -3.1875    -3.1875   -28.3500      0   0.00   0.36679   0.28810  -0.27475  3.0  2.7
    268    1    -1.0625    -3.1875   -28.3500      0   0.00   0.27759   0.33057   0.32664  3.0  2.7
    269    1     1.0625    -3.1875   -28.3500      0   0.00  -0.45673  -0.28904   0.02966  3.0  2.7
    270    1     3.1875    -3.1875   -28.3500      0   0.00   0.36269  -0.35795   0.18263  3.0  2.7
    271    1     5.3125    -3.1875   -28.3500      0   0.00  -0.01655  -0.46301   0.27996  3.0  2.7
    272    1     7.4375    -3.1875   -28.3500      0   0.00   0.25816  -0.09990   0.46519  3.0  2.7
    273    1    -7.4375    -1.0625   -28.3500      0   0.00   0.18792  -0.27128  -0.42909  3.0  2.7
    274    1    -5.3125    -1.0625   -28.3500      0   0.00  -0.34615  -0.08840  -0.40669  3.0  2.7
    275    1    -3.1875    -1.0625   -28.3500      0   0.00  -0.29321   0.12318  -0.43804  3.0  2.7
    276    1    -1.0625    -1.0625   -28.3500      0   0.00  -0.21955   0.49470   0.01007  3.0  2.7
    277    1     1.0625    -1.0625   -28.3500      0   0.00  -0.29570   0.39218  -0.22757  3.0  2.7
    278    1     3.1875    -1.0625   -28.3500      0   0.00   0.08300  -0.14654  -0.51446  3.0  2.7
    279    1     5.3125    -1.0625   -28.3500      0   0.00   0.53713   0.03760   0.05573  3.0  2.7
    280    1     7.4375    -1.0625   -28.3500      0   0.00  -0.27422   0.11306  -0.45282  3.0  2.7
    281    1    -7.4375     1.0625   -28.3500      0   0.00   0.07597  -0.53566  -0.01791  3.0  2.7
    282    1    -5.3125     1.0625   -28.3500      0   0.00  -0.09939   0.10793  -0.52106  3.0  2.7
    283    1    -3.1875     1.0625   -28.3500      0   0.00   0.15347  -0.20261  -0.47794  3.0  2.7
    284    1    -1.0625     1.0625   -28.3500      0   0.00  -0.38708  -0.37101  -0.07452  3.0  2.7
    285    1     1.0625     1.0625   -28.3500      0   0.00  -0.00662  -0.35293  -0.41039  3.0  2.7
    286    1     3.1875     1.0625   -28.3500      0   0.00   0.05760  -0.51990  -0.13933  3.0  2.7
    287    1     5.3125     1.0625   -28.3500      0   0.00  -0.36697   0.38087   0.11533  3.0  2.7
    288    1     7.4375     1.0625   -28.3500      0   0.00   0.23816   0.12798   0.46896  3.0  2.7
    289    1    -7.4375     3.1875   -28.3500      0   0.00  -0.44791  -0.13339   0.27316  3.0  2.7
    290    1    -5.3125     3.1875   -28.3500      0   0.00   0.22181  -0.47378  -0.13915  3.0  2.7
    291    1    -3.1875     3.1875   -28.3500      0   0.00   0.44276   0.05373  -0.30677  3.0  2.7
    292    1    -1.0625     3.1875   -28.3500      0   0.00   0.53879  -0.01590  -0.04981  3.0  2.7
    293    1     1.0625     3.1875   -28.3500      0   0.00   0.43522   0.32132   0.01912  3.0  2.7
    294    1     3.1875     3.1875   -28.3500      0   0.00  -0.41266   0.29542  -0.18833  3.0  2.7
    295    1     5.3125     3.1875   -28.3500      0   0.00   0.41887   0.10247   0.32723  3.0  2.7
    296    1     7.4375     3.1875   -28.3500      0   0.00   0.15780  -0.17414  -0.48765  3.0  2.7